 
             Northwest Computational Chemistry Package (NWChem) 7.0.0
             --------------------------------------------------------
 
 
                    Environmental Molecular Sciences Laboratory
                       Pacific Northwest National Laboratory
                                Richland, WA 99352
 
                              Copyright (c) 1994-2020
                       Pacific Northwest National Laboratory
                            Battelle Memorial Institute
 
             NWChem is an open-source computational chemistry package
                        distributed under the terms of the
                      Educational Community License (ECL) 2.0
             A copy of the license is included with this distribution
                              in the LICENSE.TXT file
 
                                  ACKNOWLEDGMENT
                                  --------------

            This software and its documentation were developed at the
            EMSL at Pacific Northwest National Laboratory, a multiprogram
            national laboratory, operated for the U.S. Department of Energy
            by Battelle under Contract Number DE-AC05-76RL01830. Support
            for this work was provided by the Department of Energy Office
            of Biological and Environmental Research, Office of Basic
            Energy Sciences, and the Office of Advanced Scientific Computing.


                                NWChem Input Module
                                -------------------
 
 
 Summary of "ao basis" -> "" (spherical)
 ------------------------------------------------------------------------------
       Tag                 Description            Shells   Functions and Types
 ---------------- ------------------------------  ------  ---------------------
 *                        ahlrichs_vtz                on all atoms 



 Scaling coordinates for geometry "geometry" by  1.889725989
 (inverse scale =  0.529177249)

 
 
                             Geometry "geometry" -> ""
                             -------------------------
 
 Output coordinates in angstroms (scale by  1.889725989 to convert to a.u.)
 
  No.       Tag          Charge          X              Y              Z
 ---- ---------------- ---------- -------------- -------------- --------------
    1 C                    6.0000    -0.00062929     0.00968701     0.04501533
    2 O                    8.0000     0.00164820     0.16816179     1.34971209
    3 C                    6.0000    -0.00833477     1.25423520    -0.73049374
    4 C                    6.0000     0.01201573    -1.32785904    -0.57197009
    5 H                    1.0000     0.29595998     2.11739483    -0.12974800
    6 H                    1.0000    -0.25376758    -2.14206659     0.11396808
    7 H                    1.0000     0.60170572     1.15993505    -1.64035759
    8 H                    1.0000    -1.04361142     1.43912077    -1.08567212
    9 H                    1.0000    -0.64356424    -1.35306925    -1.45524131
   10 H                    1.0000     1.03124698    -1.52464363    -0.96094732
   11 H                    1.0000    -0.01946500    -0.65834437     1.90499244
 
      Atomic Mass 
      ----------- 
 
      C                 12.000000
      O                 15.994910
      H                  1.007825
 

 Effective nuclear repulsion energy (a.u.)     127.3264844579

            Nuclear Dipole moment (a.u.) 
            ----------------------------
        X                 Y               Z
 ---------------- ---------------- ----------------
    -0.0000000000     0.0000000000     0.0000000000
 
 
            XYZ format geometry
            -------------------
    11
 geometry
 C                    -0.00062929     0.00968701     0.04501533
 O                     0.00164820     0.16816179     1.34971209
 C                    -0.00833477     1.25423520    -0.73049374
 C                     0.01201573    -1.32785904    -0.57197009
 H                     0.29595998     2.11739483    -0.12974800
 H                    -0.25376758    -2.14206659     0.11396808
 H                     0.60170572     1.15993505    -1.64035759
 H                    -1.04361142     1.43912077    -1.08567212
 H                    -0.64356424    -1.35306925    -1.45524131
 H                     1.03124698    -1.52464363    -0.96094732
 H                    -0.01946500    -0.65834437     1.90499244
 
 ==============================================================================
                                internuclear distances
 ------------------------------------------------------------------------------
       center one      |      center two      | atomic units |  angstroms
 ------------------------------------------------------------------------------
    2 O                |   1 C                |     2.48364  |     1.31429
    3 C                |   1 C                |     2.77112  |     1.46642
    4 C                |   1 C                |     2.78365  |     1.47304
    5 H                |   3 C                |     2.06883  |     1.09478
    6 H                |   4 C                |     2.07361  |     1.09731
    7 H                |   3 C                |     2.07775  |     1.09950
    8 H                |   3 C                |     2.09762  |     1.11001
    9 H                |   4 C                |     2.07920  |     1.10027
   10 H                |   4 C                |     2.09484  |     1.10854
   11 H                |   2 O                |     1.88205  |     0.99594
 ------------------------------------------------------------------------------
                         number of included internuclear distances:         10
 ==============================================================================



 ==============================================================================
                                 internuclear angles
 ------------------------------------------------------------------------------
        center 1       |       center 2       |       center 3       |  degrees
 ------------------------------------------------------------------------------
    2 O                |   1 C                |   3 C                |   115.00
    2 O                |   1 C                |   4 C                |   121.69
    3 C                |   1 C                |   4 C                |   123.31
    1 C                |   2 O                |  11 H                |   116.96
    1 C                |   3 C                |   5 H                |   112.18
    1 C                |   3 C                |   7 H                |   111.22
    1 C                |   3 C                |   8 H                |   108.39
    5 H                |   3 C                |   7 H                |   111.56
    5 H                |   3 C                |   8 H                |   107.67
    7 H                |   3 C                |   8 H                |   105.48
    1 C                |   4 C                |   6 H                |   114.20
    1 C                |   4 C                |   9 H                |   110.61
    1 C                |   4 C                |  10 H                |   108.42
    6 H                |   4 C                |   9 H                |   109.91
    6 H                |   4 C                |  10 H                |   108.08
    9 H                |   4 C                |  10 H                |   105.19
 ------------------------------------------------------------------------------
                            number of included internuclear angles:         16
 ==============================================================================



                              Aldehyde and Ketone set
                              -----------------------
 
                                 NWChem DFT Module
                                 -----------------
 
 
                              Aldehyde and Ketone set
 
 
                      Basis "ao basis" -> "ao basis" (spherical)
                      -----
  C (Carbon)
  ----------
            Exponent  Coefficients 
       -------------- ---------------------------------------------------------
  1 S  8.50603840E+03  0.000534
  1 S  1.27573290E+03  0.004125
  1 S  2.90311870E+02  0.021171
  1 S  8.20562000E+01  0.082418
  1 S  2.64796410E+01  0.240129
 
  2 S  9.24145850E+00  1.000000
 
  3 S  3.36435300E+00  1.000000
 
  4 S  8.71741640E-01  1.000000
 
  5 S  3.63523520E-01  1.000000
 
  6 S  1.28731350E-01  1.000000
 
  7 P  3.47094960E+01  0.005330
  7 P  7.95908830E+00  0.035866
  7 P  2.37869720E+00  0.142003
  7 P  8.15400650E-01  0.342031
 
  8 P  2.89537850E-01  1.000000
 
  9 P  1.00847540E-01  1.000000
 
  O (Oxygen)
  ----------
            Exponent  Coefficients 
       -------------- ---------------------------------------------------------
  1 S  1.59026475E+04  0.000515
  1 S  2.38495378E+03  0.003982
  1 S  5.42719572E+02  0.020477
  1 S  1.53404079E+02  0.080262
  1 S  4.95457161E+01  0.237668
 
  2 S  1.73396499E+01  1.000000
 
  3 S  6.33033553E+00  1.000000
 
  4 S  1.69958822E+00  1.000000
 
  5 S  6.89544913E-01  1.000000
 
  6 S  2.39360282E-01  1.000000
 
  7 P  6.32705240E+01  0.006071
  7 P  1.46233123E+01  0.041948
  7 P  4.44895180E+00  0.161569
  7 P  1.52815132E+00  0.356828
 
  8 P  5.29973159E-01  1.000000
 
  9 P  1.75094460E-01  1.000000
 
  H (Hydrogen)
  ------------
            Exponent  Coefficients 
       -------------- ---------------------------------------------------------
  1 S  3.40613410E+01  0.006025
  1 S  5.12357460E+00  0.045021
  1 S  1.16466260E+00  0.201897
 
  2 S  3.27230410E-01  1.000000
 
  3 S  1.03072410E-01  1.000000
 


 Summary of "ao basis" -> "ao basis" (spherical)
 ------------------------------------------------------------------------------
       Tag                 Description            Shells   Functions and Types
 ---------------- ------------------------------  ------  ---------------------
 C                        ahlrichs vtz               9       15   6s3p
 O                        ahlrichs vtz               9       15   6s3p
 H                        ahlrichs vtz               3        3   3s




 Summary of "ao basis" -> "ao basis" (spherical)
 ------------------------------------------------------------------------------
       Tag                 Description            Shells   Functions and Types
 ---------------- ------------------------------  ------  ---------------------
 C                        ahlrichs vtz               9       15   6s3p
 O                        ahlrichs vtz               9       15   6s3p
 H                        ahlrichs vtz               3        3   3s


  Caching 1-el integrals 
 
            General Information
            -------------------
          SCF calculation type: DFT
          Wavefunction type:  spin polarized.
          No. of atoms     :    11
          No. of electrons :    31
           Alpha electrons :    16
            Beta electrons :    15
          Charge           :     2
          Spin multiplicity:     2
          Use of symmetry is: off; symmetry adaption is: off
          Maximum number of iterations: ***
          This is a Direct SCF calculation.
          AO basis - number of functions:    81
                     number of shells:    57
          Convergence on energy requested:  1.00D-08
          Convergence on density requested:  1.00D-07
          Convergence on gradient requested:  1.00D-06
 
              XC Information
              --------------
                        PBE96 Method XC Functional
          PerdewBurkeErnzerhof Exchange Functional  1.000          
            Perdew 1991 LDA Correlation Functional  1.000 local    
           PerdewBurkeErnz. Correlation Functional  1.000 non-local
 
             Grid Information
             ----------------
          Grid used for XC integration:  fine      
          Radial quadrature: Mura-Knowles        
          Angular quadrature: Lebedev. 
          Tag              B.-S. Rad. Rad. Pts. Rad. Cut. Ang. Pts.
          ---              ---------- --------- --------- ---------
          C                   0.70       70          11.0       590
          O                   0.60       70          10.0       590
          H                   0.35       60          12.0       590
          Grid pruning is: on 
          Number of quadrature shells:   700
          Spatial weights used:  Erf1
 
          Convergence Information
          -----------------------
          Convergence aids based upon iterative change in 
          total energy or number of iterations. 
          Levelshifting, if invoked, occurs when the 
          HOMO/LUMO gap drops below (HL_TOL):  1.00D-02
          DIIS, if invoked, will attempt to extrapolate 
          using up to (NFOCK): 10 stored Fock matrices.

                    Damping( 0%)  Levelshifting(0.5)       DIIS
                  --------------- ------------------- ---------------
          dE  on:    start            ASAP                start   
          dE off:    2 iters        *** iters           *** iters 

 
      Screening Tolerance Information
      -------------------------------
          Density screening/tol_rho:  1.00D-12
          AO Gaussian exp screening on grid/accAOfunc:  18
          CD Gaussian exp screening on grid/accCDfunc:  20
          XC Gaussian exp screening on grid/accXCfunc:  20
          Schwarz screening/accCoul:  1.00D-12

      Dispersion Parameters
      ---------------------

           DFT-D3BJ Model   
          s6 scale factor  :        1.000000000000
          s8 scale factor  :        0.787500000000
          a1 parameter     :        0.428900000000
          a2 parameter     :        4.440700000000
              vdW contrib  :       -0.006516858787


 Forcing the number of linearly dependent vectors to be  0
 
      Superposition of Atomic Density Guess
      -------------------------------------
 
 Sum of atomic energies:        -191.29601129
   Time after variat. SCF:      0.1
   Time prior to 1st pass:      0.1

 Grid_pts file          = ./01_CH3COHCH3.gridpts.00
 Record size in doubles =  12289        No. of grid_pts per rec  =   3070
 Max. records in memory =     11        Max. recs in file   =  67550051

 Grid integrated density:      33.000001754316
 Requested integration accuracy:   0.10E-06

           Memory utilization after 1st SCF pass: 
           Heap Space remaining (MW):        0.00                 343
          Stack Space remaining (MW):      288.36           288357276

   convergence    iter        energy       DeltaE   RMS-Dens  Diis-err    time
 ---------------- ----- ----------------- --------- --------- ---------  ------
 d= 0,ls=0.0,diis     1   -194.0560418446 -3.21D+02  1.52D-02  1.26D+01     0.4
                                                     1.50D-02  1.11D+01
 d= 0,ls=0.5,diis     2   -192.3540879035  1.70D+00  5.99D-03  3.37D-01     0.6
                                                     6.02D-03  3.37D-01
 d= 0,ls=0.5,diis     3   -192.4872705708 -1.33D-01  1.55D-03  1.88D-01     0.9
                                                     1.53D-03  1.77D-01
 d= 0,ls=0.5,diis     4   -192.5365545999 -4.93D-02  9.91D-04  4.24D-02     1.1
                                                     9.59D-04  3.76D-02
 d= 0,ls=0.5,diis     5   -192.5518503823 -1.53D-02  6.55D-04  1.21D-02     1.4
                                                     5.99D-04  9.97D-03
 d= 0,ls=0.5,diis     6   -192.5568109980 -4.96D-03  3.26D-04  2.33D-03     1.6
                                                     2.59D-04  1.55D-03
 d= 0,ls=0.5,diis     7   -192.5579902781 -1.18D-03  1.89D-04  5.22D-04     1.9
                                                     1.39D-04  2.75D-04
 d= 0,ls=0.5,diis     8   -192.5583594924 -3.69D-04  1.08D-04  1.27D-04     2.2
                                                     8.31D-05  6.32D-05
 d= 0,ls=0.5,diis     9   -192.5585101009 -1.51D-04  7.37D-05  4.36D-05     2.4
                                                     5.82D-05  2.83D-05
 d= 0,ls=0.5,diis    10   -192.5585907214 -8.06D-05  5.59D-05  1.51D-05     2.7
                                                     4.51D-05  1.88D-05
 d= 0,ls=0.5,diis    11   -192.5586365646 -4.58D-05  3.39D-05  6.32D-06     2.9
                                                     3.49D-05  1.73D-05
 d= 0,ls=0.5,diis    12   -192.5586652250 -2.87D-05  2.63D-05  3.86D-06     3.1
                                                     2.97D-05  1.39D-05
 d= 0,ls=0.5,diis    13   -192.5586836974 -1.85D-05  1.74D-05  4.48D-06     3.4
                                                     2.61D-05  1.33D-05
 d= 0,ls=0.5,diis    14   -192.5586977736 -1.41D-05  1.20D-05  3.66D-06     3.6
                                                     2.39D-05  1.09D-05
 d= 0,ls=0.5,diis    15   -192.5587091998 -1.14D-05  1.09D-05  2.39D-06     3.8
                                                     2.21D-05  8.29D-06
 d= 0,ls=0.5,diis    16   -192.5587179825 -8.78D-06  6.44D-06  2.65D-06     4.0
                                                     2.11D-05  7.81D-06
 d= 0,ls=0.5,diis    17   -192.5587263345 -8.35D-06  5.62D-06  1.84D-06     4.3
                                                     2.05D-05  6.41D-06
 d= 0,ls=0.5,diis    18   -192.5587339921 -7.66D-06  3.09D-06  1.27D-06     4.5
                                                     2.04D-05  5.48D-06
 d= 0,ls=0.5,diis    19   -192.5587415850 -7.59D-06  2.12D-06  6.05D-07     4.7
                                                     2.05D-05  4.51D-06
 d= 0,ls=0.5,diis    20   -192.5587490079 -7.42D-06  1.98D-06  3.18D-07     5.0
                                                     2.10D-05  4.01D-06
 d= 0,ls=0.5,diis    21   -192.5587564538 -7.45D-06  8.93D-07  3.98D-07     5.2
                                                     2.13D-05  3.80D-06
 d= 0,ls=0.5,diis    22   -192.5587639753 -7.52D-06  1.99D-06  7.96D-07     5.4
                                                     2.18D-05  3.95D-06
 d= 0,ls=0.5,diis    23   -192.5587717563 -7.78D-06  9.16D-07  1.25D-06     5.6
                                                     2.23D-05  4.30D-06
 d= 0,ls=0.5,diis    24   -192.5587796987 -7.94D-06  1.66D-06  2.10D-06     5.9
                                                     2.30D-05  4.94D-06
 d= 0,ls=0.5,diis    25   -192.5587876330 -7.93D-06  2.26D-06  3.77D-06     6.1
                                                     2.36D-05  6.22D-06
 d= 0,ls=0.5,diis    26   -192.5587962690 -8.64D-06  2.12D-06  4.84D-06     6.3
                                                     2.44D-05  7.12D-06
 d= 0,ls=0.5,diis    27   -192.5588046283 -8.36D-06  1.96D-06  7.37D-06     6.6
                                                     2.52D-05  8.98D-06
 d= 0,ls=0.5,diis    28   -192.5588131811 -8.55D-06  7.28D-07  1.05D-05     6.8
                                                     2.59D-05  1.13D-05
 d= 0,ls=0.5,diis    29   -192.5588224028 -9.22D-06  7.09D-06  1.35D-05     7.0
                                                     2.75D-05  1.37D-05
 d= 0,ls=0.5,diis    30   -192.5588297263 -7.32D-06  2.92D-06  2.12D-05     7.2
                                                     2.82D-05  1.90D-05
 d= 0,ls=0.5,diis    31   -192.5588381129 -8.39D-06  2.29D-06  2.77D-05     7.5
                                                     2.89D-05  2.40D-05
 d= 0,ls=0.5,diis    32   -192.5588483164 -1.02D-05  5.05D-06  3.25D-05     7.7
                                                     2.98D-05  2.80D-05
 d= 0,ls=0.5,diis    33   -192.5588605999 -1.23D-05  1.10D-06  3.52D-05     7.9
                                                     3.06D-05  3.08D-05
 d= 0,ls=0.5,diis    34   -192.5588719459 -1.13D-05  1.20D-05  4.12D-05     8.1
                                                     3.30D-05  3.54D-05
 d= 0,ls=0.5,diis    35   -192.5588768737 -4.93D-06  3.27D-06  6.09D-05     8.4
                                                     3.34D-05  4.87D-05
 d= 0,ls=0.5,diis    36   -192.5588864555 -9.58D-06  1.69D-06  7.25D-05     8.6
                                                     3.45D-05  5.76D-05
 d= 0,ls=0.5,diis    37   -192.5588970802 -1.06D-05  2.93D-06  8.42D-05     8.8
                                                     3.60D-05  6.67D-05
 d= 0,ls=0.5,diis    38   -192.5589066158 -9.54D-06  2.43D-06  1.00D-04     9.0
                                                     3.71D-05  7.87D-05
 d= 0,ls=0.5,diis    39   -192.5589190333 -1.24D-05  2.48D-06  1.13D-04     9.3
                                                     3.86D-05  8.91D-05
 d= 0,ls=0.5,diis    40   -192.5589294470 -1.04D-05  3.37D-06  1.32D-04     9.5
                                                     4.00D-05  1.04D-04
 d= 0,ls=0.5,diis    41   -192.5589398141 -1.04D-05  4.49D-06  1.52D-04     9.7
                                                     4.15D-05  1.19D-04
 d= 0,ls=0.5,diis    42   -192.5589497579 -9.94D-06  3.10D-06  1.76D-04    10.0
                                                     4.29D-05  1.37D-04
 d= 0,ls=0.5,diis    43   -192.5589623238 -1.26D-05  2.49D-05  1.98D-04    10.2
                                                     4.49D-05  1.53D-04
 d= 0,ls=0.5,diis    44   -192.5590012941 -3.90D-05  1.06D-05  1.78D-04    10.4
                                                     4.49D-05  1.44D-04
 d= 0,ls=0.5,diis    45   -192.5590306105 -2.93D-05  6.30D-06  1.81D-04    10.6
                                                     4.66D-05  1.47D-04
 d= 0,ls=0.5,diis    46   -192.5590478921 -1.73D-05  7.44D-06  2.11D-04    10.9
                                                     4.86D-05  1.67D-04
 d= 0,ls=0.5,diis    47   -192.5590589002 -1.10D-05  4.62D-06  2.53D-04    11.1
                                                     5.03D-05  1.97D-04
 d= 0,ls=0.5,diis    48   -192.5590734549 -1.46D-05  1.78D-06  2.93D-04    11.3
                                                     5.19D-05  2.26D-04
 d= 0,ls=0.5,diis    49   -192.5590932978 -1.98D-05  6.69D-06  3.26D-04    11.5
                                                     5.42D-05  2.51D-04
 d= 0,ls=0.5,diis    50   -192.5591074361 -1.41D-05  2.42D-06  3.76D-04    11.8
                                                     5.57D-05  2.85D-04
 d= 0,ls=0.5,diis    51   -192.5591302480 -2.28D-05  3.14D-06  4.15D-04    12.0
                                                     5.73D-05  3.12D-04
 d= 0,ls=0.5,diis    52   -192.5591568880 -2.66D-05  5.18D-05  4.48D-04    12.2
                                                     7.02D-05  3.37D-04
 d= 0,ls=0.5,diis    53   -192.5592495726 -9.27D-05  1.94D-05  4.11D-04    12.5
                                                     6.10D-05  3.10D-04
 d= 0,ls=0.5,diis    54   -192.5593183560 -6.88D-05  1.69D-05  3.89D-04    12.7
                                                     6.16D-05  2.95D-04
 d= 0,ls=0.5,diis    55   -192.5593867620 -6.84D-05  9.90D-06  3.73D-04    12.9
                                                     6.44D-05  2.83D-04
 d= 0,ls=0.5,diis    56   -192.5594227437 -3.60D-05  6.10D-06  4.39D-04    13.1
                                                     6.64D-05  3.21D-04
 d= 0,ls=0.5,diis    57   -192.5594586875 -3.59D-05  8.90D-06  5.03D-04    13.4
                                                     6.87D-05  3.61D-04
 d= 0,ls=0.5,diis    58   -192.5594970506 -3.84D-05  1.36D-05  5.60D-04    13.6
                                                     7.03D-05  4.02D-04
 d= 0,ls=0.5,diis    59   -192.5595511310 -5.41D-05  1.91D-05  5.88D-04    13.8
                                                     7.36D-05  4.26D-04
 d= 0,ls=0.5,diis    60   -192.5596246852 -7.36D-05  2.31D-05  6.10D-04    14.0
                                                     7.42D-05  4.35D-04
 d= 0,ls=0.5,diis    61   -192.5597202900 -9.56D-05  5.80D-05  5.86D-04    14.3
                                                     8.36D-05  4.18D-04
 d= 0,ls=0.5,diis    62   -192.5598712475 -1.51D-04  2.36D-05  4.74D-04    14.5
                                                     7.90D-05  3.35D-04
 d= 0,ls=0.5,diis    63   -192.5599627360 -9.15D-05  2.75D-05  4.90D-04    14.7
                                                     7.72D-05  3.37D-04
 d= 0,ls=0.5,diis    64   -192.5600663943 -1.04D-04  1.46D-05  4.61D-04    14.9
                                                     7.79D-05  3.18D-04
 d= 0,ls=0.5,diis    65   -192.5601522315 -8.58D-05  4.91D-05  4.83D-04    15.2
                                                     7.97D-05  3.30D-04
 d= 0,ls=0.5,diis    66   -192.5602866654 -1.34D-04  2.41D-05  3.87D-04    15.4
                                                     8.22D-05  2.78D-04
 d= 0,ls=0.5,diis    67   -192.5603392949 -5.26D-05  5.38D-05  4.90D-04    15.6
                                                     8.24D-05  3.28D-04
 d= 0,ls=0.5,diis    68   -192.5604976678 -1.58D-04  1.38D-04  3.42D-04    15.9
                                                     1.01D-04  2.31D-04
 d= 0,ls=0.5,diis    69   -192.5607124333 -2.15D-04  6.93D-05  7.01D-05    16.1
                                                     7.72D-05  7.71D-05
 d= 0,ls=0.5,diis    70   -192.5608273955 -1.15D-04  4.16D-05  1.64D-05    16.3
                                                     6.96D-05  4.62D-05
 d= 0,ls=0.5,diis    71   -192.5609198058 -9.24D-05  2.89D-05  5.62D-06    16.5
                                                     6.81D-05  4.20D-05
 d= 0,ls=0.5,diis    72   -192.5610064951 -8.67D-05  1.33D-05  2.87D-06    16.8
                                                     6.82D-05  4.15D-05
 d= 0,ls=0.5,diis    73   -192.5610915760 -8.51D-05  3.36D-05  5.28D-06    17.0
                                                     6.84D-05  4.21D-05
 d= 0,ls=0.5,diis    74   -192.5611773209 -8.57D-05  9.96D-06  1.13D-06    17.2
                                                     6.82D-05  4.15D-05
 d= 0,ls=0.5,diis    75   -192.5612614174 -8.41D-05  3.59D-05  4.86D-06    17.4
                                                     6.82D-05  4.15D-05
 d= 0,ls=0.5,diis    76   -192.5613461865 -8.48D-05  1.53D-05  5.66D-07    17.7
                                                     6.68D-05  4.14D-05
 d= 0,ls=0.5,diis    77   -192.5614295372 -8.34D-05  2.60D-05  9.19D-07    17.9
                                                     6.67D-05  4.10D-05
 d= 0,ls=0.5,diis    78   -192.5615118824 -8.23D-05  3.07D-05  4.17D-07    18.1
                                                     6.61D-05  4.20D-05
 d= 0,ls=0.5,diis    79   -192.5615912381 -7.94D-05  2.84D-05  2.76D-06    18.3
                                                     6.49D-05  4.55D-05
 d= 0,ls=0.5,diis    80   -192.5616680060 -7.68D-05  8.04D-06  7.77D-06    18.6
                                                     6.48D-05  5.06D-05
 d= 0,ls=0.5,diis    81   -192.5617501131 -8.21D-05  3.06D-05  2.53D-06    18.8
                                                     6.44D-05  4.51D-05
 d= 0,ls=0.5,diis    82   -192.5618246869 -7.46D-05  6.59D-05  9.38D-06    19.0
                                                     6.89D-05  5.18D-05
 d= 0,ls=0.5,diis    83   -192.5618736364 -4.89D-05  5.13D-05  6.18D-05    19.3
                                                     6.30D-05  9.42D-05
 d= 0,ls=0.5,diis    84   -192.5619103986 -3.68D-05  2.17D-05  1.32D-04    19.5
                                                     5.75D-05  1.50D-04
 d= 0,ls=0.5,diis    85   -192.5619709518 -6.06D-05  1.01D-05  1.40D-04    19.7
                                                     5.77D-05  1.60D-04
 d= 0,ls=0.5,diis    86   -192.5620528630 -8.19D-05  8.76D-06  1.05D-04    19.9
                                                     5.89D-05  1.36D-04
 d= 0,ls=0.5,diis    87   -192.5621386102 -8.57D-05  4.92D-05  6.72D-05    20.2
                                                     6.04D-05  1.05D-04
 d= 0,ls=0.5,diis    88   -192.5621759802 -3.74D-05  1.73D-05  1.36D-04    20.4
                                                     5.61D-05  1.57D-04
 d= 0,ls=0.5,diis    89   -192.5622384292 -6.24D-05  2.14D-05  1.39D-04    20.6
                                                     5.61D-05  1.61D-04
 d= 0,ls=0.5,diis    90   -192.5622970521 -5.86D-05  1.15D-05  1.51D-04    20.8
                                                     5.55D-05  1.71D-04
 d= 0,ls=0.5,diis    91   -192.5623633420 -6.63D-05  1.67D-05  1.44D-04    21.1
                                                     5.84D-05  1.65D-04
 d= 0,ls=0.5,diis    92   -192.5624550017 -9.17D-05  1.05D-05  8.30D-05    21.3
                                                     5.74D-05  1.17D-04
 d= 0,ls=0.5,diis    93   -192.5625262292 -7.12D-05  6.52D-06  6.91D-05    21.5
                                                     5.76D-05  1.04D-04
 d= 0,ls=0.5,diis    94   -192.5625992581 -7.30D-05  5.74D-05  5.01D-05    21.7
                                                     6.17D-05  8.73D-05
 d= 0,ls=0.5,diis    95   -192.5626233254 -2.41D-05  1.29D-05  1.33D-04    22.0
                                                     5.47D-05  1.51D-04
 d= 0,ls=0.5,diis    96   -192.5626862125 -6.29D-05  5.46D-05  1.20D-04    22.2
                                                     5.94D-05  1.42D-04
 d= 0,ls=0.5,diis    97   -192.5626888543 -2.64D-06  2.50D-05  2.45D-04    22.4
                                                     5.61D-05  2.39D-04
 d= 0,ls=0.5,diis    98   -192.5627827684 -9.39D-05  1.32D-05  1.54D-04    22.6
                                                     5.42D-05  1.72D-04
 d= 0,ls=0.5,diis    99   -192.5628406861 -5.79D-05  2.25D-05  1.53D-04    22.9
                                                     5.42D-05  1.69D-04
 d= 0,ls=0.5,diis   100   -192.5628890197 -4.83D-05  1.79D-05  1.71D-04    23.1
                                                     5.63D-05  1.82D-04
 d= 0,ls=0.5,diis   101   -192.5629692827 -8.03D-05  8.48D-06  1.16D-04    23.3
                                                     5.63D-05  1.38D-04
 d= 0,ls=0.5,diis   102   -192.5630460207 -7.67D-05  4.17D-05  7.40D-05    23.6
                                                     5.78D-05  1.03D-04
 d= 0,ls=0.5,diis   103   -192.5630739140 -2.79D-05  2.88D-05  1.39D-04    23.8
                                                     5.79D-05  1.52D-04
 d= 0,ls=0.5,diis   104   -192.5631605140 -8.66D-05  9.06D-06  6.64D-05    24.0
                                                     5.55D-05  9.72D-05
 d= 0,ls=0.5,diis   105   -192.5632226259 -6.21D-05  2.40D-05  5.36D-05    24.2
                                                     5.56D-05  8.51D-05
 d= 0,ls=0.5,diis   106   -192.5632712564 -4.86D-05  2.53D-05  6.75D-05    24.5
                                                     5.53D-05  9.57D-05
 d= 0,ls=0.5,diis   107   -192.5633162743 -4.50D-05  7.03D-06  8.63D-05    24.7
                                                     5.50D-05  1.11D-04
 d= 0,ls=0.5,diis   108   -192.5633799145 -6.36D-05  3.17D-05  6.28D-05    24.9
                                                     5.59D-05  9.23D-05
 d= 0,ls=0.5,diis   109   -192.5634208708 -4.10D-05  2.36D-05  8.91D-05    25.1
                                                     5.52D-05  1.12D-04
 d= 0,ls=0.5,diis   110   -192.5634651191 -4.42D-05  6.17D-06  1.05D-04    25.4
                                                     5.46D-05  1.25D-04
 d= 0,ls=0.5,diis   111   -192.5635254842 -6.04D-05  3.44D-06  8.45D-05    25.6
                                                     5.50D-05  1.09D-04
 d= 0,ls=0.5,diis   112   -192.5635863629 -6.09D-05  1.70D-05  6.56D-05    25.8
                                                     5.57D-05  9.34D-05
 d= 0,ls=0.5,diis   113   -192.5636398747 -5.35D-05  1.08D-05  6.30D-05    26.1
                                                     5.60D-05  9.00D-05
 d= 0,ls=0.5,diis   114   -192.5636977104 -5.78D-05  7.75D-06  5.10D-05    26.3
                                                     5.66D-05  7.92D-05
 d= 0,ls=0.5,diis   115   -192.5637612292 -6.35D-05  1.24D-05  2.87D-05    26.5
                                                     5.70D-05  5.92D-05
 d= 0,ls=0.5,diis   116   -192.5638179896 -5.68D-05  4.62D-06  2.17D-05    26.7
                                                     5.72D-05  5.19D-05
 d= 0,ls=0.5,diis   117   -192.5638769785 -5.90D-05  1.80D-05  1.10D-05    27.0
                                                     5.75D-05  4.15D-05
 d= 0,ls=0.5,diis   118   -192.5639291568 -5.22D-05  3.94D-06  1.35D-05    27.2
                                                     5.72D-05  4.32D-05
 d= 0,ls=0.5,diis   119   -192.5639859412 -5.68D-05  9.58D-06  6.07D-06    27.4
                                                     5.76D-05  3.58D-05
 d= 0,ls=0.5,diis   120   -192.5640404328 -5.45D-05  9.89D-06  4.07D-06    27.6
                                                     5.78D-05  3.33D-05
 d= 0,ls=0.5,diis   121   -192.5640945692 -5.41D-05  7.93D-06  2.78D-06    27.9
                                                     5.79D-05  3.16D-05
 d= 0,ls=0.5,diis   122   -192.5641486621 -5.41D-05  7.53D-06  1.73D-06    28.1
                                                     5.82D-05  3.01D-05
 d= 0,ls=0.5,diis   123   -192.5642028246 -5.42D-05  6.93D-06  7.85D-07    28.3
                                                     5.86D-05  2.87D-05
 d= 0,ls=0.5,diis   124   -192.5642569745 -5.41D-05  4.56D-06  2.41D-07    28.5
                                                     5.88D-05  2.75D-05
 d= 0,ls=0.5,diis   125   -192.5643108713 -5.39D-05  6.56D-06  6.40D-07    28.8
                                                     5.90D-05  2.66D-05
 d= 0,ls=0.5,diis   126   -192.5643643714 -5.35D-05  3.64D-06  2.12D-06    29.0
                                                     5.92D-05  2.69D-05
 d= 0,ls=0.5,diis   127   -192.5644164546 -5.21D-05  6.21D-06  6.96D-06    29.2
                                                     5.94D-05  2.91D-05
 d= 0,ls=0.5,diis   128   -192.5644665228 -5.01D-05  6.22D-06  1.60D-05    29.5
                                                     5.96D-05  3.40D-05
 d= 0,ls=0.5,diis   129   -192.5645150301 -4.85D-05  5.67D-06  2.77D-05    29.7
                                                     6.01D-05  4.12D-05
 d= 0,ls=0.5,diis   130   -192.5645609437 -4.59D-05  7.00D-06  4.53D-05    29.9
                                                     6.02D-05  5.28D-05
 d= 0,ls=0.5,diis   131   -192.5646044443 -4.35D-05  2.11D-06  6.72D-05    30.1
                                                     6.03D-05  6.75D-05
 d= 0,ls=0.5,diis   132   -192.5646488999 -4.45D-05  1.74D-06  8.59D-05    30.4
                                                     6.05D-05  8.07D-05
 d= 0,ls=0.5,diis   133   -192.5646922882 -4.34D-05  1.87D-05  1.07D-04    30.6
                                                     6.13D-05  9.57D-05
 d= 0,ls=0.5,diis   134   -192.5647481157 -5.58D-05  1.03D-05  1.02D-04    30.8
                                                     6.11D-05  9.40D-05
 d= 0,ls=0.5,diis   135   -192.5647999284 -5.18D-05  1.08D-05  1.07D-04    31.0
                                                     6.14D-05  9.82D-05
 d= 0,ls=0.5,diis   136   -192.5648527374 -5.28D-05  8.95D-06  1.09D-04    31.3
                                                     6.15D-05  1.01D-04
 d= 0,ls=0.5,diis   137   -192.5649037181 -5.10D-05  1.96D-05  1.16D-04    31.5
                                                     6.23D-05  1.07D-04
 d= 0,ls=0.5,diis   138   -192.5649599640 -5.62D-05  1.45D-05  1.13D-04    31.7
                                                     6.24D-05  1.06D-04
 d= 0,ls=0.5,diis   139   -192.5650125559 -5.26D-05  1.19D-05  1.18D-04    31.9
                                                     6.23D-05  1.12D-04
 d= 0,ls=0.5,diis   140   -192.5650654767 -5.29D-05  1.33D-05  1.22D-04    32.2
                                                     6.25D-05  1.16D-04
 d= 0,ls=0.5,diis   141   -192.5651168096 -5.13D-05  2.52D-05  1.30D-04    32.4
                                                     6.31D-05  1.22D-04
 d= 0,ls=0.5,diis   142   -192.5651710691 -5.43D-05  2.88D-05  1.33D-04    32.6
                                                     6.33D-05  1.26D-04
 d= 0,ls=0.5,diis   143   -192.5652316236 -6.06D-05  2.14D-05  1.23D-04    32.8
                                                     6.22D-05  1.19D-04
 d= 0,ls=0.5,diis   144   -192.5652797297 -4.81D-05  1.24D-05  1.31D-04    33.1
                                                     6.22D-05  1.21D-04
 d= 0,ls=0.5,diis   145   -192.5653272902 -4.76D-05  2.57D-05  1.43D-04    33.3
                                                     6.30D-05  1.31D-04
 d= 0,ls=0.5,diis   146   -192.5653779719 -5.07D-05  5.10D-05  1.45D-04    33.5
                                                     6.54D-05  1.28D-04
 d= 0,ls=0.5,diis   147   -192.5654056740 -2.77D-05  6.31D-05  1.83D-04    33.7
                                                     6.95D-05  1.48D-04
 d= 0,ls=0.5,diis   148   -192.5653925280  1.31D-05  1.57D-05  2.86D-04    34.0
                                                     6.69D-05  2.18D-04
 d= 0,ls=0.5,diis   149   -192.5654248256 -3.23D-05  4.72D-05  3.02D-04    34.2
                                                     6.93D-05  2.43D-04
 d= 0,ls=0.5,diis   150   -192.5655065361 -8.17D-05  6.87D-05  2.51D-04    34.4
                                                     7.17D-05  2.10D-04
 d= 0,ls=0.5,diis   151   -192.5656047581 -9.82D-05  1.53D-04  1.83D-04    34.6
                                                     9.02D-05  1.65D-04
 d= 0,ls=0.5,diis   152   -192.5657475939 -1.43D-04  4.94D-05  5.26D-05    34.9
                                                     6.77D-05  7.34D-05
 d= 0,ls=0.5,diis   153   -192.5658219959 -7.44D-05  7.17D-05  3.41D-05    35.1
                                                     7.02D-05  5.64D-05
 d= 0,ls=0.5,diis   154   -192.5658945174 -7.25D-05  5.59D-05  1.38D-05    35.3
                                                     6.67D-05  4.09D-05
 d= 0,ls=0.5,diis   155   -192.5659576047 -6.31D-05  5.34D-05  5.47D-06    35.5
                                                     6.59D-05  3.35D-05
 d= 0,ls=0.5,diis   156   -192.5660158868 -5.83D-05  2.99D-05  1.99D-06    35.8
                                                     6.25D-05  2.93D-05
 d= 0,ls=0.5,diis   157   -192.5660702895 -5.44D-05  7.58D-05  1.07D-06    36.0
                                                     6.75D-05  2.72D-05
 d= 0,ls=0.5,diis   158   -192.5661184352 -4.81D-05  5.00D-05  9.75D-06    36.2
                                                     6.02D-05  3.13D-05
 d= 0,ls=0.5,diis   159   -192.5661727122 -5.43D-05  2.26D-05  3.06D-07    36.5
                                                     5.97D-05  2.54D-05
 d= 0,ls=0.5,diis   160   -192.5662218850 -4.92D-05  3.15D-05  6.37D-07    36.7
                                                     5.99D-05  2.52D-05
 d= 0,ls=0.5,diis   161   -192.5662694399 -4.76D-05  4.98D-05  2.03D-06    36.9
                                                     6.09D-05  2.57D-05
 d= 0,ls=0.5,diis   162   -192.5663141324 -4.47D-05  1.89D-05  7.06D-06    37.1
                                                     5.72D-05  2.81D-05
 d= 0,ls=0.5,diis   163   -192.5663600622 -4.59D-05  2.25D-05  7.00D-06    37.4
                                                     5.70D-05  2.78D-05
 d= 0,ls=0.5,diis   164   -192.5664046416 -4.46D-05  3.47D-05  8.18D-06    37.6
                                                     5.75D-05  2.78D-05
 d= 0,ls=0.5,diis   165   -192.5664460500 -4.14D-05  7.86D-05  1.35D-05    37.8
                                                     6.27D-05  3.06D-05
 d= 0,ls=0.5,diis   166   -192.5664739722 -2.79D-05  3.06D-05  4.12D-05    38.0
                                                     5.49D-05  4.56D-05
 d= 0,ls=0.5,diis   167   -192.5665086437 -3.47D-05  7.18D-06  4.95D-05    38.3
                                                     5.22D-05  5.21D-05
 d= 0,ls=0.5,diis   168   -192.5665506521 -4.20D-05  1.73D-05  4.34D-05    38.5
                                                     5.19D-05  5.14D-05
 d= 0,ls=0.5,diis   169   -192.5665860997 -3.54D-05  9.89D-06  4.87D-05    38.7
                                                     5.03D-05  5.58D-05
 d= 0,ls=0.5,diis   170   -192.5666266823 -4.06D-05  4.31D-05  4.13D-05    38.9
                                                     5.27D-05  5.04D-05
 d= 0,ls=0.5,diis   171   -192.5666555388 -2.89D-05  2.27D-05  5.62D-05    39.2
                                                     4.99D-05  5.62D-05
 d= 0,ls=0.5,diis   172   -192.5666889282 -3.34D-05  3.23D-05  5.87D-05    39.4
                                                     4.88D-05  5.62D-05
 d= 0,ls=0.5,diis   173   -192.5667361722 -4.72D-05  2.04D-05  3.58D-05    39.6
                                                     4.83D-05  4.36D-05
 d= 0,ls=0.5,diis   174   -192.5667690175 -3.28D-05  5.88D-06  4.02D-05    39.8
                                                     4.72D-05  4.42D-05
 d= 0,ls=0.5,diis   175   -192.5668077531 -3.87D-05  6.97D-05  3.10D-05    40.1
                                                     5.29D-05  3.70D-05
 d= 0,ls=0.5,diis   176   -192.5668210140 -1.33D-05  2.85D-05  6.70D-05    40.3
                                                     4.65D-05  5.36D-05
 d= 0,ls=0.5,diis   177   -192.5668441050 -2.31D-05  1.50D-05  7.75D-05    40.5
                                                     4.45D-05  5.91D-05
 d= 0,ls=0.5,diis   178   -192.5668798263 -3.57D-05  5.94D-05  6.30D-05    40.8
                                                     4.80D-05  5.45D-05
 d= 0,ls=0.5,diis   179   -192.5669293444 -4.95D-05  2.10D-05  2.74D-05    41.0
                                                     4.45D-05  3.79D-05
 d= 0,ls=0.5,diis   180   -192.5669579526 -2.86D-05  9.60D-05  3.06D-05    41.2
                                                     5.43D-05  3.77D-05
 d= 0,ls=0.5,diis   181   -192.5669582532 -3.01D-07  3.98D-05  8.38D-05    41.4
                                                     4.32D-05  6.42D-05
 d= 0,ls=0.5,diis   182   -192.5669701761 -1.19D-05  6.99D-06  1.05D-04    41.7
                                                     3.98D-05  7.69D-05
 d= 0,ls=0.5,diis   183   -192.5669970932 -2.69D-05  3.16D-05  9.77D-05    41.9
                                                     4.06D-05  7.53D-05
 d= 0,ls=0.5,diis   184   -192.5670366591 -3.96D-05  4.99D-05  6.83D-05    42.1
                                                     4.31D-05  6.11D-05
 d= 0,ls=0.5,diis   185   -192.5670830706 -4.64D-05  6.62D-05  3.02D-05    42.4
                                                     4.55D-05  3.65D-05
 d= 0,ls=0.5,diis   186   -192.5670899878 -6.92D-06  8.97D-05  6.52D-05    42.6
                                                     4.94D-05  5.34D-05
 d= 0,ls=0.5,diis   187   -192.5671399644 -5.00D-05  7.24D-05  1.32D-05    42.8
                                                     4.70D-05  2.44D-05
 d= 0,ls=0.5,diis   188   -192.5671413555 -1.39D-06  7.67D-05  5.17D-05    43.0
                                                     4.66D-05  4.71D-05
 d= 0,ls=0.5,diis   189   -192.5671277508  1.36D-05  1.63D-05  1.10D-04    43.3
                                                     3.61D-05  8.09D-05
 d= 0,ls=0.5,diis   190   -192.5671486318 -2.09D-05  5.61D-05  9.57D-05    43.5
                                                     3.97D-05  7.84D-05
 d= 0,ls=0.5,diis   191   -192.5671902012 -4.16D-05  4.75D-05  5.14D-05    43.7
                                                     3.93D-05  5.55D-05
 d= 0,ls=0.5,diis   192   -192.5672293560 -3.92D-05  1.41D-05  2.08D-05    43.9
                                                     3.67D-05  3.27D-05
 d= 0,ls=0.5,diis   193   -192.5672571352 -2.78D-05  1.16D-05  1.08D-05    44.2
                                                     3.54D-05  2.27D-05
 d= 0,ls=0.5,diis   194   -192.5672787435 -2.16D-05  2.19D-05  8.38D-06    44.4
                                                     3.49D-05  1.97D-05
 d= 0,ls=0.5,diis   195   -192.5672963907 -1.76D-05  4.71D-05  1.05D-05    44.6
                                                     3.65D-05  1.98D-05
 d= 0,ls=0.5,diis   196   -192.5673067164 -1.03D-05  2.83D-05  2.39D-05    44.8
                                                     3.36D-05  2.67D-05
 d= 0,ls=0.5,diis   197   -192.5673197204 -1.30D-05  7.91D-06  2.98D-05    45.1
                                                     3.21D-05  2.82D-05
 d= 0,ls=0.5,diis   198   -192.5673393244 -1.96D-05  6.99D-05  2.18D-05    45.3
                                                     4.15D-05  2.30D-05
 d= 0,ls=0.5,diis   199   -192.5673667468 -2.74D-05  1.44D-05  1.49D-06    45.5
                                                     3.30D-05  9.83D-06
 d= 0,ls=0.5,diis   200   -192.5673827699 -1.60D-05  2.77D-05  5.72D-07    45.7
                                                     3.34D-05  8.67D-06
 d= 0,ls=0.5,diis   201   -192.5673942429 -1.15D-05  4.10D-05  4.68D-06    46.0
                                                     3.39D-05  1.23D-05
 d= 0,ls=0.5,diis   202   -192.5673990984 -4.86D-06  2.49D-05  1.80D-05    46.2
                                                     3.04D-05  2.27D-05
 d= 0,ls=0.5,diis   203   -192.5674033267 -4.23D-06  1.13D-05  2.96D-05    46.4
                                                     2.80D-05  3.24D-05
 d= 0,ls=0.5,diis   204   -192.5674104268 -7.10D-06  8.88D-06  3.47D-05    46.6
                                                     2.71D-05  3.79D-05
 d= 0,ls=0.5,diis   205   -192.5674225487 -1.21D-05  1.40D-05  3.02D-05    46.9
                                                     2.70D-05  3.64D-05
 d= 0,ls=0.5,diis   206   -192.5674322120 -9.66D-06  6.41D-06  3.19D-05    47.1
                                                     2.61D-05  3.69D-05
 d= 0,ls=0.5,diis   207   -192.5674440774 -1.19D-05  5.34D-05  2.78D-05    47.3
                                                     3.59D-05  3.36D-05
 d= 0,ls=0.5,diis   208   -192.5674708017 -2.67D-05  3.77D-05  4.48D-06    47.5
                                                     2.95D-05  1.29D-05
 d= 0,ls=0.5,diis   209   -192.5674798817 -9.08D-06  2.78D-05  9.29D-06    47.8
                                                     2.70D-05  1.58D-05
 d= 0,ls=0.5,diis   210   -192.5674881940 -8.31D-06  1.71D-05  1.36D-05    48.0
                                                     2.69D-05  1.75D-05
 d= 0,ls=0.5,diis   211   -192.5675031256 -1.49D-05  1.83D-05  4.69D-06    48.2
                                                     2.66D-05  1.00D-05
 d= 0,ls=0.5,diis   212   -192.5675153456 -1.22D-05  4.51D-05  8.94D-07    48.5
                                                     3.00D-05  6.28D-06
 d= 0,ls=0.5,diis   213   -192.5675209071 -5.56D-06  1.81D-05  7.83D-06    48.7
                                                     2.51D-05  9.66D-06
 d= 0,ls=0.5,diis   214   -192.5675323855 -1.15D-05  9.99D-06  2.30D-06    48.9
                                                     2.43D-05  6.43D-06
 d= 0,ls=0.5,diis   215   -192.5675403389 -7.95D-06  2.97D-05  2.81D-06    49.1
                                                     2.57D-05  7.42D-06
 d= 0,ls=0.5,diis   216   -192.5675429047 -2.57D-06  2.28D-05  1.14D-05    49.4
                                                     2.37D-05  1.44D-05
 d= 0,ls=0.5,diis   217   -192.5675441264 -1.22D-06  7.87D-06  2.05D-05    49.6
                                                     2.14D-05  2.17D-05
 d= 0,ls=0.5,diis   218   -192.5675476176 -3.49D-06  1.98D-05  2.42D-05    49.8
                                                     2.21D-05  2.57D-05
 d= 0,ls=0.5,diis   219   -192.5675578006 -1.02D-05  2.78D-05  1.67D-05    50.0
                                                     2.41D-05  2.14D-05
 d= 0,ls=0.5,diis   220   -192.5675709570 -1.32D-05  2.44D-05  6.65D-06    50.3
                                                     2.15D-05  1.23D-05
 d= 0,ls=0.5,diis   221   -192.5675760894 -5.13D-06  1.65D-05  9.54D-06    50.5
                                                     2.00D-05  1.43D-05
 d= 0,ls=0.5,diis   222   -192.5675820745 -5.99D-06  2.91D-05  9.59D-06    50.7
                                                     2.39D-05  1.32D-05
 d= 0,ls=0.5,diis   223   -192.5675930905 -1.10D-05  2.77D-05  1.82D-06    51.0
                                                     2.27D-05  6.18D-06
 d= 0,ls=0.5,diis   224   -192.5675990205 -5.93D-06  1.68D-05  2.96D-06    51.2
                                                     2.02D-05  5.80D-06
 d= 0,ls=0.5,diis   225   -192.5676042696 -5.25D-06  7.07D-06  4.28D-06    51.4
                                                     1.97D-05  5.84D-06
 d= 0,ls=0.5,diis   226   -192.5676111602 -6.89D-06  5.21D-06  2.03D-06    51.6
                                                     1.90D-05  4.19D-06
 d= 0,ls=0.5,diis   227   -192.5676166812 -5.52D-06  1.04D-05  1.99D-06    51.9
                                                     1.92D-05  3.87D-06
 d= 0,ls=0.5,diis   228   -192.5676221559 -5.47D-06  1.03D-05  1.17D-06    52.1
                                                     1.85D-05  3.69D-06
 d= 0,ls=0.5,diis   229   -192.5676259794 -3.82D-06  1.47D-05  2.67D-06    52.3
                                                     1.82D-05  5.06D-06
 d= 0,ls=0.5,diis   230   -192.5676282019 -2.22D-06  1.52D-05  6.38D-06    52.5
                                                     1.76D-05  8.25D-06
 d= 0,ls=0.5,diis   231   -192.5676296407 -1.44D-06  1.32D-05  1.10D-05    52.8
                                                     1.70D-05  1.21D-05
 d= 0,ls=0.5,diis   232   -192.5676304956 -8.55D-07  4.65D-06  1.60D-05    53.0
                                                     1.60D-05  1.62D-05
 d= 0,ls=0.5,diis   233   -192.5676341332 -3.64D-06  1.89D-05  1.52D-05    53.2
                                                     1.74D-05  1.66D-05
 d= 0,ls=0.5,diis   234   -192.5676413319 -7.20D-06  4.20D-06  8.81D-06    53.4
                                                     1.54D-05  1.20D-05
 d= 0,ls=0.5,diis   235   -192.5676463258 -4.99D-06  1.98D-05  6.56D-06    53.6
                                                     1.70D-05  9.48D-06
 d= 0,ls=0.5,diis   236   -192.5676500457 -3.72D-06  2.54D-05  7.00D-06    53.9
                                                     1.97D-05  8.36D-06
 d= 0,ls=0.5,diis   237   -192.5676574923 -7.45D-06  7.49D-06  1.34D-06    54.1
                                                     1.56D-05  3.94D-06
 d= 0,ls=0.5,diis   238   -192.5676616445 -4.15D-06  2.65D-05  7.88D-07    54.3
                                                     1.72D-05  2.95D-06
 d= 0,ls=0.5,diis   239   -192.5676637394 -2.09D-06  3.81D-06  3.52D-06    54.5
                                                     1.46D-05  3.97D-06
 d= 0,ls=0.5,diis   240   -192.5676674790 -3.74D-06  8.90D-06  2.54D-06    54.7
                                                     1.44D-05  3.15D-06
 d= 0,ls=0.5,diis   241   -192.5676701331 -2.65D-06  1.65D-05  3.49D-06    55.0
                                                     1.59D-05  3.43D-06
 d= 0,ls=0.5,diis   242   -192.5676746909 -4.56D-06  6.08D-06  7.69D-07    55.2
                                                     1.42D-05  2.15D-06
 d= 0,ls=0.5,diis   243   -192.5676773640 -2.67D-06  1.53D-05  1.18D-06    55.4
                                                     1.46D-05  2.68D-06
 d= 0,ls=0.5,diis   244   -192.5676784835 -1.12D-06  7.79D-06  3.86D-06    55.6
                                                     1.35D-05  4.71D-06
 d= 0,ls=0.5,diis   245   -192.5676797515 -1.27D-06  2.92D-06  5.51D-06    55.8
                                                     1.26D-05  6.14D-06
 d= 0,ls=0.5,diis   246   -192.5676816756 -1.92D-06  6.24D-06  6.02D-06    56.1
                                                     1.24D-05  6.89D-06
 d= 0,ls=0.5,diis   247   -192.5676835481 -1.87D-06  1.89D-05  6.86D-06    56.3
                                                     1.48D-05  7.51D-06
 d= 0,ls=0.5,diis   248   -192.5676880102 -4.46D-06  1.01D-05  2.97D-06    56.5
                                                     1.33D-05  4.85D-06
 d= 0,ls=0.5,diis   249   -192.5676915769 -3.57D-06  1.06D-05  1.31D-06    56.7
                                                     1.30D-05  3.04D-06
 d= 0,ls=0.5,diis   250   -192.5676943565 -2.78D-06  1.40D-05  8.03D-07    56.9
                                                     1.26D-05  2.33D-06
 d= 0,ls=0.5,diis   251   -192.5676964066 -2.05D-06  4.42D-06  1.24D-06    57.2
                                                     1.18D-05  2.24D-06
 d= 0,ls=0.5,diis   252   -192.5676987082 -2.30D-06  1.24D-05  1.05D-06    57.4
                                                     1.21D-05  1.90D-06
 d= 0,ls=0.5,diis   253   -192.5677002489 -1.54D-06  7.50D-06  2.15D-06    57.6
                                                     1.21D-05  2.21D-06
 d= 0,ls=0.5,diis   254   -192.5677029581 -2.71D-06  1.21D-05  8.19D-07    57.8
                                                     1.26D-05  1.49D-06
 d= 0,ls=0.5,diis   255   -192.5677054209 -2.46D-06  4.15D-06  7.22D-08    58.0
                                                     1.13D-05  1.04D-06
 d= 0,ls=0.5,diis   256   -192.5677073498 -1.93D-06  1.15D-05  1.57D-08    58.3
                                                     1.17D-05  9.80D-07
 d= 0,ls=0.5,diis   257   -192.5677087654 -1.42D-06  8.91D-06  5.77D-07    58.5
                                                     1.09D-05  1.49D-06
 d= 0,ls=0.5,diis   258   -192.5677098607 -1.10D-06  9.11D-06  1.44D-06    58.7
                                                     1.07D-05  2.17D-06
 d= 0,ls=0.5,diis   259   -192.5677104645 -6.04D-07  5.25D-06  2.98D-06    58.9
                                                     1.00D-05  3.40D-06
 d= 0,ls=0.5,diis   260   -192.5677112321 -7.68D-07  3.40D-06  4.01D-06    59.1
                                                     9.76D-06  4.34D-06
 d= 0,ls=0.5,diis   261   -192.5677129014 -1.67D-06  3.09D-06  3.29D-06    59.4
                                                     9.67D-06  3.97D-06
 d= 0,ls=0.5,diis   262   -192.5677147734 -1.87D-06  1.31D-05  2.57D-06    59.6
                                                     1.13D-05  3.43D-06
 d= 0,ls=0.5,diis   263   -192.5677172527 -2.48D-06  5.98D-06  1.02D-06    59.8
                                                     1.06D-05  2.06D-06
 d= 0,ls=0.5,diis   264   -192.5677193233 -2.07D-06  1.39D-05  2.64D-07    60.0
                                                     1.08D-05  1.06D-06
 d= 0,ls=0.5,diis   265   -192.5677208104 -1.49D-06  9.98D-06  2.17D-07    60.2
                                                     9.88D-06  9.61D-07
 d= 0,ls=0.5,diis   266   -192.5677220001 -1.19D-06  2.02D-06  6.10D-07    60.5
                                                     9.24D-06  1.05D-06
 d= 0,ls=0.5,diis   267   -192.5677233902 -1.39D-06  1.84D-06  4.82D-07    60.7
                                                     9.16D-06  9.19D-07
 d= 0,ls=0.5,diis   268   -192.5677247722 -1.38D-06  2.57D-06  3.11D-07    60.9
                                                     8.94D-06  8.12D-07
 d= 0,ls=0.5,diis   269   -192.5677260182 -1.25D-06  3.10D-06  2.96D-07    61.1
                                                     8.95D-06  7.80D-07
 d= 0,ls=0.5,diis   270   -192.5677273004 -1.28D-06  4.65D-06  1.12D-07    61.3
                                                     8.94D-06  6.91D-07
 d= 0,ls=0.5,diis   271   -192.5677283139 -1.01D-06  7.12D-06  2.84D-07    61.6
                                                     8.74D-06  8.37D-07
 d= 0,ls=0.5,diis   272   -192.5677290112 -6.97D-07  1.23D-05  8.95D-07    61.8
                                                     9.29D-06  1.30D-06
 d= 0,ls=0.5,diis   273   -192.5677290363 -2.51D-08  7.79D-06  2.56D-06    62.0
                                                     8.71D-06  2.36D-06
 d= 0,ls=0.5,diis   274   -192.5677304443 -1.41D-06  5.83D-06  1.54D-06    62.2
                                                     8.30D-06  1.98D-06
 d= 0,ls=0.5,diis   275   -192.5677317457 -1.30D-06  2.28D-06  9.89D-07    62.4
                                                     7.82D-06  1.63D-06
 d= 0,ls=0.5,diis   276   -192.5677329120 -1.17D-06  2.25D-06  6.91D-07    62.7
                                                     7.80D-06  1.31D-06
 d= 0,ls=0.5,diis   277   -192.5677341049 -1.19D-06  4.96D-06  3.48D-07    62.9
                                                     7.75D-06  9.50D-07
 d= 0,ls=0.5,diis   278   -192.5677351346 -1.03D-06  4.88D-06  2.20D-07    63.1
                                                     7.72D-06  7.33D-07
 d= 0,ls=0.5,diis   279   -192.5677360578 -9.23D-07  4.36D-06  2.61D-07    63.3
                                                     7.57D-06  6.52D-07
 d= 0,ls=0.5,diis   280   -192.5677368919 -8.34D-07  3.68D-06  3.84D-07    63.5
                                                     7.29D-06  6.60D-07
 d= 0,ls=0.5,diis   281   -192.5677376627 -7.71D-07  4.88D-06  5.44D-07    63.8
                                                     7.66D-06  6.96D-07
 d= 0,ls=0.5,diis   282   -192.5677386958 -1.03D-06  3.68D-06  1.67D-07    64.0
                                                     7.49D-06  5.18D-07
 d= 0,ls=0.5,diis   283   -192.5677395961 -9.00D-07  4.26D-06  2.26D-08    64.2
                                                     7.18D-06  4.30D-07
 d= 0,ls=0.5,diis   284   -192.5677403027 -7.07D-07  7.78D-06  1.24D-07    64.4
                                                     7.39D-06  5.13D-07
 d= 0,ls=0.5,diis   285   -192.5677407304 -4.28D-07  4.28D-06  6.34D-07    64.6
                                                     6.81D-06  8.60D-07
 d= 0,ls=0.5,diis   286   -192.5677411378 -4.07D-07  4.69D-06  1.06D-06    64.9
                                                     6.71D-06  1.20D-06
 d= 0,ls=0.5,diis   287   -192.5677414454 -3.08D-07  5.30D-06  1.61D-06    65.1
                                                     6.90D-06  1.60D-06
 d= 0,ls=0.5,diis   288   -192.5677423766 -9.31D-07  2.32D-06  1.02D-06    65.3
                                                     6.44D-06  1.35D-06
 d= 0,ls=0.5,diis   289   -192.5677432001 -8.24D-07  5.32D-06  7.50D-07    65.5
                                                     7.03D-06  1.15D-06
 d= 0,ls=0.5,diis   290   -192.5677441781 -9.78D-07  1.71D-06  3.07D-07    65.7
                                                     6.35D-06  7.27D-07
 d= 0,ls=0.5,diis   291   -192.5677449411 -7.63D-07  3.20D-06  1.37D-07    66.0
                                                     6.55D-06  5.12D-07
 d= 0,ls=0.5,diis   292   -192.5677456779 -7.37D-07  1.01D-05  1.56D-08    66.2
                                                     7.28D-06  3.60D-07
 d= 0,ls=0.5,diis   293   -192.5677461809 -5.03D-07  3.87D-06  2.61D-07    66.4
                                                     6.16D-06  4.59D-07
 d= 0,ls=0.5,diis   294   -192.5677467047 -5.24D-07  1.34D-06  3.80D-07    66.6
                                                     6.07D-06  4.91D-07
 d= 0,ls=0.5,diis   295   -192.5677473417 -6.37D-07  4.71D-06  2.60D-07    66.8
                                                     6.54D-06  4.35D-07
 d= 0,ls=0.5,diis   296   -192.5677480307 -6.89D-07  1.84D-06  4.31D-08    67.1
                                                     5.98D-06  3.18D-07
 d= 0,ls=0.5,diis   297   -192.5677486082 -5.78D-07  4.18D-06  6.08D-09    67.3
                                                     5.99D-06  2.83D-07
 d= 0,ls=0.5,diis   298   -192.5677490965 -4.88D-07  5.37D-06  6.43D-08    67.5
                                                     5.92D-06  3.30D-07
 d= 0,ls=0.5,diis   299   -192.5677494492 -3.53D-07  4.19D-06  3.16D-07    67.7
                                                     5.65D-06  5.07D-07
 d= 0,ls=0.5,diis   300   -192.5677497386 -2.89D-07  1.22D-06  6.18D-07    67.9
                                                     5.35D-06  7.28D-07
 d= 0,ls=0.5,diis   301   -192.5677501509 -4.12D-07  8.83D-07  6.42D-07    68.2
                                                     5.30D-06  7.90D-07
 d= 0,ls=0.5,diis   302   -192.5677506105 -4.60D-07  4.64D-06  6.05D-07    68.4
                                                     5.85D-06  7.97D-07
 d= 0,ls=0.5,diis   303   -192.5677512588 -6.48D-07  2.74D-06  3.07D-07    68.6
                                                     5.49D-06  5.94D-07
 d= 0,ls=0.5,diis   304   -192.5677518163 -5.58D-07  2.22D-06  1.73D-07    68.8
                                                     5.52D-06  4.37D-07
 d= 0,ls=0.5,diis   305   -192.5677523668 -5.50D-07  7.83D-06  3.91D-08    69.0
                                                     6.06D-06  2.68D-07
 d= 0,ls=0.5,diis   306   -192.5677527809 -4.14D-07  4.38D-06  9.75D-08    69.3
                                                     5.29D-06  2.86D-07
 d= 0,ls=0.5,diis   307   -192.5677531261 -3.45D-07  4.15D-06  2.43D-07    69.5
                                                     5.06D-06  3.47D-07
 d= 0,ls=0.5,diis   308   -192.5677534178 -2.92D-07  5.00D-06  4.46D-07    69.7
                                                     5.66D-06  4.27D-07
 d= 0,ls=0.5,diis   309   -192.5677539923 -5.74D-07  3.00D-06  1.02D-07    69.9
                                                     5.24D-06  2.72D-07
 d= 0,ls=0.5,diis   310   -192.5677544394 -4.47D-07  2.14D-06  2.50D-08    70.2
                                                     4.95D-06  2.19D-07
 d= 0,ls=0.5,diis   311   -192.5677548309 -3.91D-07  4.56D-06  1.06D-08    70.4
                                                     5.13D-06  2.03D-07
 d= 0,ls=0.5,diis   312   -192.5677551341 -3.03D-07  4.50D-06  1.17D-07    70.6
                                                     4.91D-06  2.70D-07
 d= 0,ls=0.5,diis   313   -192.5677553418 -2.08D-07  1.31D-06  3.50D-07    70.8
                                                     4.53D-06  4.21D-07
 d= 0,ls=0.5,diis   314   -192.5677556288 -2.87D-07  3.42D-06  3.90D-07    71.0
                                                     4.64D-06  4.78D-07
 d= 0,ls=0.5,diis   315   -192.5677557818 -1.53D-07  3.77D-06  6.53D-07    71.3
                                                     4.83D-06  6.48D-07
 d= 0,ls=0.5,diis   316   -192.5677562554 -4.74D-07  3.97D-06  3.61D-07    71.5
                                                     4.90D-06  5.19D-07
 d= 0,ls=0.5,diis   317   -192.5677567244 -4.69D-07  2.70D-06  1.53D-07    71.7
                                                     4.71D-06  3.51D-07
 d= 0,ls=0.5,diis   318   -192.5677571255 -4.01D-07  2.89D-06  6.02D-08    71.9
                                                     4.58D-06  2.24D-07
 d= 0,ls=0.5,diis   319   -192.5677574814 -3.56D-07  8.16D-06  4.03D-09    72.1
                                                     5.42D-06  1.69D-07
 d= 0,ls=0.5,diis   320   -192.5677576866 -2.05D-07  3.15D-06  2.10D-07    72.4
                                                     4.28D-06  2.65D-07
 d= 0,ls=0.5,diis   321   -192.5677579093 -2.23D-07  1.64D-06  3.25D-07    72.6
                                                     4.25D-06  3.18D-07
 d= 0,ls=0.5,diis   322   -192.5677582557 -3.46D-07  3.11D-06  1.95D-07    72.8
                                                     4.55D-06  2.65D-07
 d= 0,ls=0.5,diis   323   -192.5677586169 -3.61D-07  1.83D-06  5.54D-08    73.0
                                                     4.32D-06  1.88D-07
 d= 0,ls=0.5,diis   324   -192.5677589254 -3.09D-07  3.57D-06  1.15D-08    73.2
                                                     4.31D-06  1.51D-07
 d= 0,ls=0.5,diis   325   -192.5677591722 -2.47D-07  3.21D-06  4.97D-08    73.5
                                                     4.15D-06  1.71D-07
 d= 0,ls=0.5,diis   326   -192.5677593747 -2.02D-07  1.95D-06  1.39D-07    73.7
                                                     3.94D-06  2.23D-07
 d= 0,ls=0.5,diis   327   -192.5677595655 -1.91D-07  2.06D-06  2.18D-07    73.9
                                                     3.86D-06  2.87D-07
 d= 0,ls=0.5,diis   328   -192.5677597262 -1.61D-07  8.36D-07  3.28D-07    74.1
                                                     3.72D-06  3.65D-07
 d= 0,ls=0.5,diis   329   -192.5677599322 -2.06D-07  4.88D-06  3.54D-07    74.3
                                                     4.51D-06  4.02D-07
 d= 0,ls=0.5,diis   330   -192.5677603134 -3.81D-07  2.85D-06  1.15D-07    74.6
                                                     4.10D-06  2.55D-07
 d= 0,ls=0.5,diis   331   -192.5677605982 -2.85D-07  1.55D-06  6.79D-08    74.8
                                                     3.85D-06  1.83D-07
 d= 0,ls=0.5,diis   332   -192.5677608638 -2.66D-07  5.39D-06  1.77D-08    75.0
                                                     4.26D-06  1.28D-07
 d= 0,ls=0.5,diis   333   -192.5677610773 -2.14D-07  5.01D-06  4.05D-08    75.2
                                                     4.04D-06  1.41D-07
 d= 0,ls=0.5,diis   334   -192.5677612015 -1.24D-07  1.02D-06  2.18D-07    75.4
                                                     3.54D-06  2.22D-07
 d= 0,ls=0.5,diis   335   -192.5677614233 -2.22D-07  1.11D-06  1.74D-07    75.7
                                                     3.46D-06  2.10D-07
 d= 0,ls=0.5,diis   336   -192.5677616205 -1.97D-07  2.30D-06  1.82D-07    75.9
                                                     3.74D-06  2.07D-07
 d= 0,ls=0.5,diis   337   -192.5677618862 -2.66D-07  1.53D-06  5.93D-08    76.1
                                                     3.59D-06  1.45D-07
 d= 0,ls=0.5,diis   338   -192.5677621122 -2.26D-07  3.01D-06  1.42D-08    76.3
                                                     3.63D-06  1.14D-07
 d= 0,ls=0.5,diis   339   -192.5677622691 -1.57D-07  4.87D-06  7.20D-08    76.5
                                                     3.88D-06  1.49D-07
 d= 0,ls=0.5,diis   340   -192.5677623139 -4.49D-08  1.87D-06  3.06D-07    76.8
                                                     3.26D-06  2.73D-07
 d= 0,ls=0.5,diis   341   -192.5677624126 -9.87D-08  2.52D-06  4.01D-07    77.0
                                                     3.48D-06  3.46D-07
 d= 0,ls=0.5,diis   342   -192.5677626635 -2.51D-07  3.21D-06  2.34D-07    77.2
                                                     3.61D-06  2.86D-07
 d= 0,ls=0.5,diis   343   -192.5677629202 -2.57D-07  2.24D-06  1.07D-07    77.4
                                                     3.47D-06  2.09D-07
 d= 0,ls=0.5,diis   344   -192.5677631376 -2.17D-07  9.58D-07  5.63D-08    77.6
                                                     3.25D-06  1.50D-07
 d= 0,ls=0.5,diis   345   -192.5677633325 -1.95D-07  3.90D-06  2.52D-08    77.9
                                                     3.56D-06  1.09D-07
 d= 0,ls=0.5,diis   346   -192.5677635064 -1.74D-07  3.08D-06  1.58D-08    78.1
                                                     3.29D-06  9.89D-08
 d= 0,ls=0.5,diis   347   -192.5677636382 -1.32D-07  2.85D-06  7.30D-08    78.3
                                                     3.17D-06  1.24D-07
 d= 0,ls=0.5,diis   348   -192.5677637389 -1.01D-07  8.83D-07  1.75D-07    78.5
                                                     3.04D-06  1.74D-07
 d= 0,ls=0.5,diis   349   -192.5677639125 -1.74D-07  2.52D-06  1.21D-07    78.7
                                                     3.32D-06  1.54D-07
 d= 0,ls=0.5,diis   350   -192.5677641086 -1.96D-07  1.96D-06  3.65D-08    79.0
                                                     3.23D-06  1.08D-07
 d= 0,ls=0.5,diis   351   -192.5677642759 -1.67D-07  1.42D-06  7.93D-09    79.2
                                                     3.03D-06  7.89D-08
 d= 0,ls=0.5,diis   352   -192.5677644241 -1.48D-07  3.50D-06  6.36D-10    79.4
                                                     3.24D-06  7.33D-08
 d= 0,ls=0.5,diis   353   -192.5677645337 -1.10D-07  2.26D-06  4.85D-08    79.6
                                                     2.92D-06  1.06D-07
 d= 0,ls=0.5,diis   354   -192.5677646237 -9.01D-08  1.42D-06  1.14D-07    79.8
                                                     2.80D-06  1.49D-07
 d= 0,ls=0.5,diis   355   -192.5677647141 -9.04D-08  1.36D-06  1.62D-07    80.1
                                                     2.83D-06  1.87D-07
 d= 0,ls=0.5,diis   356   -192.5677648681 -1.54D-07  1.68D-06  1.04D-07    80.3
                                                     2.90D-06  1.64D-07
 d= 0,ls=0.5,diis   357   -192.5677650263 -1.58D-07  1.76D-06  5.69D-08    80.5
                                                     2.94D-06  1.30D-07
 d= 0,ls=0.5,diis   358   -192.5677651762 -1.50D-07  1.06D-06  3.04D-08    80.7
                                                     2.80D-06  9.23D-08
 d= 0,ls=0.5,diis   359   -192.5677653158 -1.40D-07  3.53D-06  9.95D-09    81.0
                                                     3.05D-06  6.92D-08
 d= 0,ls=0.5,diis   360   -192.5677654319 -1.16D-07  2.76D-06  1.93D-08    81.2
                                                     2.82D-06  7.42D-08
 d= 0,ls=0.5,diis   361   -192.5677655163 -8.44D-08  1.70D-06  8.06D-08    81.4
                                                     2.60D-06  1.06D-07
 d= 0,ls=0.5,diis   362   -192.5677656005 -8.42D-08  1.89D-06  1.29D-07    81.6
                                                     2.77D-06  1.33D-07
 d= 0,ls=0.5,diis   363   -192.5677657489 -1.48D-07  1.99D-06  4.90D-08    81.8
                                                     2.83D-06  9.47D-08
 d= 0,ls=0.5,diis   364   -192.5677658802 -1.31D-07  8.65D-07  1.29D-08    82.1
                                                     2.63D-06  6.71D-08
 d= 0,ls=0.5,diis   365   -192.5677659942 -1.14D-07  1.97D-06  4.79D-09    82.3
                                                     2.64D-06  5.64D-08
 d= 0,ls=0.5,diis   366   -192.5677660976 -1.03D-07  2.52D-06  4.63D-09    82.5
                                                     2.65D-06  5.72D-08
 d= 0,ls=0.5,diis   367   -192.5677661734 -7.58D-08  1.95D-06  4.46D-08    82.7
                                                     2.50D-06  8.30D-08
 d= 0,ls=0.5,diis   368   -192.5677662330 -5.96D-08  8.87D-07  9.99D-08    82.9
                                                     2.34D-06  1.19D-07
 d= 0,ls=0.5,diis   369   -192.5677663073 -7.43D-08  1.53D-06  1.20D-07    83.2
                                                     2.48D-06  1.39D-07
 d= 0,ls=0.5,diis   370   -192.5677664283 -1.21D-07  1.44D-06  6.36D-08    83.4
                                                     2.48D-06  1.11D-07
 d= 0,ls=0.5,diis   371   -192.5677665426 -1.14D-07  1.53D-06  3.40D-08    83.6
                                                     2.54D-06  8.67D-08
 d= 0,ls=0.5,diis   372   -192.5677666522 -1.10D-07  1.73D-06  1.64D-08    83.8
                                                     2.43D-06  5.78D-08
 d= 0,ls=0.5,diis   373   -192.5677667511 -9.90D-08  3.30D-06  5.04D-10    84.0
                                                     2.64D-06  4.64D-08
 d= 0,ls=0.5,diis   374   -192.5677668200 -6.88D-08  1.59D-06  3.73D-08    84.3
                                                     2.27D-06  6.61D-08
 d= 0,ls=0.5,diis   375   -192.5677668848 -6.49D-08  6.17D-07  7.14D-08    84.5
                                                     2.23D-06  8.61D-08
 d= 0,ls=0.5,diis   376   -192.5677669773 -9.25D-08  8.68D-07  4.52D-08    84.7
                                                     2.28D-06  7.43D-08
 d= 0,ls=0.5,diis   377   -192.5677670708 -9.35D-08  1.01D-06  2.18D-08    84.9
                                                     2.29D-06  6.00D-08
 d= 0,ls=0.5,diis   378   -192.5677671603 -8.96D-08  9.20D-07  6.55D-09    85.1
                                                     2.22D-06  4.66D-08
 d= 0,ls=0.5,diis   379   -192.5677672412 -8.09D-08  1.75D-06  1.09D-09    85.4
                                                     2.23D-06  4.08D-08
 d= 0,ls=0.5,diis   380   -192.5677673080 -6.67D-08  3.04D-06  1.44D-08    85.6
                                                     2.40D-06  4.92D-08
 d= 0,ls=0.5,diis   381   -192.5677673356 -2.77D-08  6.45D-07  9.07D-08    85.8
                                                     2.04D-06  9.08D-08
 d= 0,ls=0.5,diis   382   -192.5677673972 -6.16D-08  7.84D-07  8.94D-08    86.0
                                                     2.04D-06  9.89D-08
 d= 0,ls=0.5,diis   383   -192.5677674759 -7.86D-08  1.26D-06  6.40D-08    86.2
                                                     2.12D-06  9.09D-08
 d= 0,ls=0.5,diis   384   -192.5677675627 -8.68D-08  1.34D-06  3.45D-08    86.5
                                                     2.16D-06  7.30D-08
 d= 0,ls=0.5,diis   385   -192.5677676468 -8.42D-08  1.09D-06  1.46D-08    86.7
                                                     2.05D-06  5.02D-08
 d= 0,ls=0.5,diis   386   -192.5677677215 -7.46D-08  2.21D-06  2.63D-09    86.9
                                                     2.14D-06  3.82D-08
 d= 0,ls=0.5,diis   387   -192.5677677809 -5.94D-08  1.52D-06  1.45D-08    87.1
                                                     1.99D-06  4.27D-08
 d= 0,ls=0.5,diis   388   -192.5677678315 -5.06D-08  4.45D-07  3.81D-08    87.3
                                                     1.89D-06  5.49D-08
 d= 0,ls=0.5,diis   389   -192.5677678911 -5.97D-08  3.15D-07  3.85D-08    87.6
                                                     1.89D-06  5.65D-08
 d= 0,ls=0.5,diis   390   -192.5677679566 -6.54D-08  1.11D-06  2.75D-08    87.8
                                                     2.00D-06  5.06D-08
 d= 0,ls=0.5,diis   391   -192.5677680274 -7.08D-08  5.59D-07  6.78D-09    88.0
                                                     1.90D-06  3.67D-08
 d= 0,ls=0.5,diis   392   -192.5677680886 -6.13D-08  1.08D-06  1.97D-09    88.2
                                                     1.90D-06  3.16D-08
 d= 0,ls=0.5,diis   393   -192.5677681422 -5.36D-08  2.16D-06  5.68D-09    88.4
                                                     1.99D-06  3.37D-08
 d= 0,ls=0.5,diis   394   -192.5677681750 -3.27D-08  1.14D-06  4.08D-08    88.7
                                                     1.79D-06  5.39D-08
 d= 0,ls=0.5,diis   395   -192.5677682077 -3.27D-08  3.77D-07  6.70D-08    88.9
                                                     1.72D-06  7.24D-08
 d= 0,ls=0.5,diis   396   -192.5677682587 -5.10D-08  1.02D-06  5.85D-08    89.1
                                                     1.82D-06  7.28D-08
 d= 0,ls=0.5,diis   397   -192.5677683240 -6.53D-08  8.02D-07  3.27D-08    89.3
                                                     1.78D-06  5.93D-08
 d= 0,ls=0.5,diis   398   -192.5677683846 -6.07D-08  8.11D-07  1.82D-08    89.5
                                                     1.79D-06  4.72D-08
 d= 0,ls=0.5,diis   399   -192.5677684433 -5.87D-08  1.38D-06  8.02D-09    89.8
                                                     1.80D-06  3.32D-08
 d= 0,ls=0.5,diis   400   -192.5677684965 -5.32D-08  1.67D-06  1.27D-09    90.0
                                                     1.79D-06  2.69D-08
 d= 0,ls=0.5,diis   401   -192.5677685378 -4.13D-08  2.06D-06  1.36D-08    90.2
                                                     1.81D-06  3.30D-08
 d= 0,ls=0.5,diis   402   -192.5677685615 -2.37D-08  5.45D-07  5.55D-08    90.4
                                                     1.64D-06  5.39D-08
 d= 0,ls=0.5,diis   403   -192.5677686132 -5.17D-08  1.23D-06  3.69D-08    90.6
                                                     1.76D-06  4.73D-08
 d= 0,ls=0.5,diis   404   -192.5677686699 -5.67D-08  7.26D-07  1.27D-08    90.9
                                                     1.69D-06  3.39D-08
 d= 0,ls=0.5,diis   405   -192.5677687183 -4.84D-08  9.04D-07  5.34D-09    91.1
                                                     1.66D-06  2.69D-08
 d= 0,ls=0.5,diis   406   -192.5677687628 -4.45D-08  1.06D-06  1.42D-09    91.3
                                                     1.61D-06  2.30D-08
 d= 0,ls=0.5,diis   407   -192.5677688007 -3.79D-08  1.26D-06  6.26D-09    91.5
                                                     1.59D-06  2.57D-08
 d= 0,ls=0.5,diis   408   -192.5677688301 -2.94D-08  1.35D-06  2.27D-08    91.7
                                                     1.60D-06  3.62D-08
 d= 0,ls=0.5,diis   409   -192.5677688499 -1.98D-08  5.71D-07  5.03D-08    92.0
                                                     1.51D-06  5.29D-08
 d= 0,ls=0.5,diis   410   -192.5677688927 -4.28D-08  3.76D-07  3.46D-08    92.2
                                                     1.44D-06  4.79D-08
 d= 0,ls=0.5,diis   411   -192.5677689280 -3.53D-08  1.90D-06  3.60D-08    92.4
                                                     1.79D-06  4.87D-08
 d= 0,ls=0.5,diis   412   -192.5677689835 -5.55D-08  5.73D-07  7.89D-09    92.6
                                                     1.53D-06  2.80D-08
 d= 0,ls=0.5,diis   413   -192.5677690252 -4.17D-08  1.54D-06  2.24D-09    92.9
                                                     1.58D-06  2.01D-08
 d= 0,ls=0.5,diis   414   -192.5677690604 -3.52D-08  2.13D-06  3.09D-09    93.1
                                                     1.64D-06  2.06D-08
 d= 0,ls=0.5,diis   415   -192.5677690792 -1.88D-08  4.10D-07  3.34D-08    93.3
                                                     1.38D-06  3.62D-08
 d= 0,ls=0.5,diis   416   -192.5677691114 -3.22D-08  6.08D-07  3.19D-08    93.5
                                                     1.44D-06  3.73D-08
 d= 0,ls=0.5,diis   417   -192.5677691513 -3.99D-08  7.92D-07  1.64D-08    93.7
                                                     1.47D-06  2.92D-08
 d= 0,ls=0.5,diis   418   -192.5677691901 -3.88D-08  1.00D-06  5.40D-09    94.0
                                                     1.42D-06  2.17D-08
 d= 0,ls=0.5,diis   419   -192.5677692195 -2.94D-08  7.28D-07  9.17D-09    94.2
                                                     1.36D-06  2.28D-08
 d= 0,ls=0.5,diis   420   -192.5677692482 -2.86D-08  4.98D-07  1.09D-08    94.4
                                                     1.33D-06  2.23D-08
 d= 0,ls=0.5,diis   421   -192.5677692753 -2.72D-08  2.19D-06  1.37D-08    94.6
                                                     1.60D-06  2.47D-08
 d= 0,ls=0.5,diis   422   -192.5677692740  1.30D-09  8.74D-07  6.48D-08    94.8
                                                     1.35D-06  5.08D-08
 d= 0,ls=0.5,diis   423   -192.5677693120 -3.80D-08  7.67D-07  3.76D-08    95.0
                                                     1.33D-06  4.21D-08
 d= 0,ls=0.5,diis   424   -192.5677693479 -3.60D-08  1.01D-06  2.23D-08    95.3
                                                     1.40D-06  3.51D-08
 d= 0,ls=0.5,diis   425   -192.5677693851 -3.72D-08  4.75D-07  8.79D-09    95.5
                                                     1.30D-06  2.44D-08
 d= 0,ls=0.5,diis   426   -192.5677694166 -3.15D-08  1.31D-06  4.01D-09    95.7
                                                     1.36D-06  1.81D-08
 d= 0,ls=0.5,diis   427   -192.5677694438 -2.72D-08  2.42D-06  2.83D-09    95.9
                                                     1.57D-06  1.63D-08
 d= 0,ls=0.5,diis   428   -192.5677694503 -6.52D-09  7.04D-07  3.90D-08    96.1
                                                     1.17D-06  3.36D-08
 d= 0,ls=0.5,diis   429   -192.5677694682 -1.79D-08  1.19D-06  4.71D-08    96.4
                                                     1.36D-06  3.88D-08
[...]
  ----- ------------  ---------------      ----- ------------  ---------------
    71      1.263254   8 H  s                77     -1.236714  10 H  s         
    65      0.937781   6 H  s                70     -0.833955   8 H  s         
    76      0.823335  10 H  s                78      0.780407  10 H  s         
     5      0.762527   1 C  s                50      0.755148   4 C  s         
    64     -0.693257   6 H  s                68     -0.695461   7 H  s         
 
 Vector   65  Occ=0.000000D+00  E= 1.867201D+00
              MO Center= -1.6D-01, -6.5D-01, -9.1D-01, r^2= 4.5D+00
   Bfn.  Coefficient  Atom+Function         Bfn.  Coefficient  Atom+Function  
  ----- ------------  ---------------      ----- ------------  ---------------
    68      1.345322   7 H  s                65      1.300461   6 H  s         
    74     -1.189147   9 H  s                64     -0.934486   6 H  s         
    69     -0.855595   7 H  s                67     -0.828263   7 H  s         
    73      0.802989   9 H  s                75      0.721012   9 H  s         
    36     -0.697454   3 C  s                14      0.569921   1 C  py        
 
 Vector   66  Occ=0.000000D+00  E= 1.873630D+00
              MO Center=  1.6D-02,  1.2D+00, -5.2D-01, r^2= 3.0D+00
   Bfn.  Coefficient  Atom+Function         Bfn.  Coefficient  Atom+Function  
  ----- ------------  ---------------      ----- ------------  ---------------
     5      2.113108   1 C  s                 4     -1.618731   1 C  s         
    62      1.419779   5 H  s                 6     -1.312134   1 C  s         
    61     -1.060611   5 H  s                71     -0.951549   8 H  s         
    72      0.794161   8 H  s                35      0.769673   3 C  s         
    68     -0.739924   7 H  s                34     -0.720730   3 C  s         
 
 Vector   67  Occ=0.000000D+00  E= 1.934256D+00
              MO Center=  3.2D-02,  2.1D-01, -1.5D-01, r^2= 3.0D+00
   Bfn.  Coefficient  Atom+Function         Bfn.  Coefficient  Atom+Function  
  ----- ------------  ---------------      ----- ------------  ---------------
     5      4.344930   1 C  s                 6     -4.180608   1 C  s         
     4     -3.163724   1 C  s                35      0.860963   3 C  s         
    34     -0.852340   3 C  s                62     -0.813173   5 H  s         
    51      0.803559   4 C  s                15      0.736327   1 C  pz        
    65     -0.710166   6 H  s                50      0.703971   4 C  s         
 
 Vector   68  Occ=0.000000D+00  E= 1.993187D+00
              MO Center= -5.5D-03,  1.7D-01,  1.2D+00, r^2= 1.4D+00
   Bfn.  Coefficient  Atom+Function         Bfn.  Coefficient  Atom+Function  
  ----- ------------  ---------------      ----- ------------  ---------------
    25      1.740356   2 O  px               22     -1.172447   2 O  px        
    28     -1.082246   2 O  px               13      0.863002   1 C  px        
    10     -0.434253   1 C  px               58     -0.373699   4 C  px        
    43     -0.339541   3 C  px               44     -0.221040   3 C  py        
    62      0.220252   5 H  s                70      0.188366   8 H  s         
 
 Vector   69  Occ=0.000000D+00  E= 2.100707D+00
              MO Center= -5.3D-03,  1.4D-01,  9.3D-01, r^2= 2.4D+00
   Bfn.  Coefficient  Atom+Function         Bfn.  Coefficient  Atom+Function  
  ----- ------------  ---------------      ----- ------------  ---------------
    36      1.836734   3 C  s                51     -1.700913   4 C  s         
    27      1.221750   2 O  pz               35     -1.184588   3 C  s         
    50      1.175045   4 C  s                26      1.049342   2 O  py        
    34      0.885673   3 C  s                49     -0.857221   4 C  s         
    24     -0.794130   2 O  pz               29     -0.746117   2 O  py        
 
 Vector   70  Occ=0.000000D+00  E= 2.288440D+00
              MO Center=  2.4D-02, -7.3D-01, -4.1D-01, r^2= 3.4D+00
   Bfn.  Coefficient  Atom+Function         Bfn.  Coefficient  Atom+Function  
  ----- ------------  ---------------      ----- ------------  ---------------
    51      6.405922   4 C  s                50     -4.142474   4 C  s         
     6     -3.976514   1 C  s                49      2.863295   4 C  s         
    35     -1.824149   3 C  s                 5      1.707597   1 C  s         
    14      1.682769   1 C  py               36      1.496236   3 C  s         
    34      1.368538   3 C  s                74     -1.049673   9 H  s         
 
 Vector   71  Occ=0.000000D+00  E= 2.317048D+00
              MO Center= -1.9D-02,  8.3D-01, -1.3D-01, r^2= 3.1D+00
   Bfn.  Coefficient  Atom+Function         Bfn.  Coefficient  Atom+Function  
  ----- ------------  ---------------      ----- ------------  ---------------
    36      7.061569   3 C  s                35     -4.175580   3 C  s         
    34      2.750934   3 C  s                14     -2.686356   1 C  py        
     6     -2.633519   1 C  s                51     -2.139854   4 C  s         
     5      1.761068   1 C  s                44     -1.250768   3 C  py        
     4     -1.233032   1 C  s                71     -1.150445   8 H  s         
 
 Vector   72  Occ=0.000000D+00  E= 2.536154D+00
              MO Center=  1.8D-03, -2.7D-02,  7.6D-01, r^2= 3.0D+00
   Bfn.  Coefficient  Atom+Function         Bfn.  Coefficient  Atom+Function  
  ----- ------------  ---------------      ----- ------------  ---------------
    51      5.561238   4 C  s                14      4.766902   1 C  py        
    36     -4.201533   3 C  s                50     -2.780117   4 C  s         
    35      2.305613   3 C  s                29     -1.871083   2 O  py        
    49      1.668695   4 C  s                26      1.498781   2 O  py        
    34     -1.417608   3 C  s                59      1.331969   4 C  py        
 
 Vector   73  Occ=0.000000D+00  E= 4.082200D+00
              MO Center=  6.2D-04,  1.6D-01,  1.3D+00, r^2= 8.9D-01
   Bfn.  Coefficient  Atom+Function         Bfn.  Coefficient  Atom+Function  
  ----- ------------  ---------------      ----- ------------  ---------------
    20      5.024155   2 O  s                19     -3.895631   2 O  s         
    21     -3.892592   2 O  s                 6      1.487387   1 C  s         
    15      1.419101   1 C  pz               18      0.813599   2 O  s         
    80      0.612631  11 H  s                30      0.594667   2 O  pz        
    60     -0.486918   4 C  pz               45     -0.391247   3 C  pz        
 
 Vector   74  Occ=0.000000D+00  E= 1.101337D+01
              MO Center= -9.1D-04,  3.9D-02, -1.0D-01, r^2= 7.9D-01
   Bfn.  Coefficient  Atom+Function         Bfn.  Coefficient  Atom+Function  
  ----- ------------  ---------------      ----- ------------  ---------------
     4     -3.013287   1 C  s                 3      2.934433   1 C  s         
     5      2.567175   1 C  s                 6     -1.596350   1 C  s         
     2     -1.535123   1 C  s                33      1.111633   3 C  s         
    34     -1.096769   3 C  s                48      0.961654   4 C  s         
    49     -0.954089   4 C  s                35      0.807923   3 C  s         
 
 Vector   75  Occ=0.000000D+00  E= 1.120984D+01
              MO Center=  8.3D-03, -8.9D-01, -4.9D-01, r^2= 1.1D+00
   Bfn.  Coefficient  Atom+Function         Bfn.  Coefficient  Atom+Function  
  ----- ------------  ---------------      ----- ------------  ---------------
    49     -2.989649   4 C  s                48      2.849235   4 C  s         
    50      2.720081   4 C  s                51     -2.463931   4 C  s         
     6      1.584641   1 C  s                47     -1.488663   4 C  s         
     5     -1.436379   1 C  s                 4      1.422522   1 C  s         
     3     -1.312385   1 C  s                34     -1.029988   3 C  s         
 
 Vector   76  Occ=0.000000D+00  E= 1.123892D+01
              MO Center= -4.8D-03,  7.8D-01, -6.8D-01, r^2= 1.3D+00
   Bfn.  Coefficient  Atom+Function         Bfn.  Coefficient  Atom+Function  
  ----- ------------  ---------------      ----- ------------  ---------------
    34     -3.103680   3 C  s                33      2.938938   3 C  s         
    35      2.877785   3 C  s                36     -2.761952   3 C  s         
    32     -1.532841   3 C  s                49      1.426095   4 C  s         
    51      1.419688   4 C  s                48     -1.343558   4 C  s         
    50     -1.346903   4 C  s                14      1.083363   1 C  py        
 
 Vector   77  Occ=0.000000D+00  E= 2.134096D+01
              MO Center=  1.6D-03,  1.7D-01,  1.3D+00, r^2= 2.0D-01
   Bfn.  Coefficient  Atom+Function         Bfn.  Coefficient  Atom+Function  
  ----- ------------  ---------------      ----- ------------  ---------------
    18      3.322802   2 O  s                19     -3.221125   2 O  s         
    20      2.578423   2 O  s                17     -1.741676   2 O  s         
    21     -1.617868   2 O  s                15      0.594274   1 C  pz        
     6      0.541312   1 C  s                30      0.251173   2 O  pz        
    60     -0.193917   4 C  pz               80      0.191530  11 H  s         
 
 Vector   78  Occ=0.000000D+00  E= 6.194520D+01
              MO Center= -5.2D-04,  3.7D-02, -9.1D-02, r^2= 4.7D-01
   Bfn.  Coefficient  Atom+Function         Bfn.  Coefficient  Atom+Function  
  ----- ------------  ---------------      ----- ------------  ---------------
     2      2.650946   1 C  s                 3     -2.020076   1 C  s         
     1     -1.567830   1 C  s                 4      1.346408   1 C  s         
     5     -1.088483   1 C  s                32      0.969579   3 C  s         
    47      0.836001   4 C  s                33     -0.734110   3 C  s         
     6      0.683975   1 C  s                48     -0.634189   4 C  s         
 
 Vector   79  Occ=0.000000D+00  E= 6.215654D+01
              MO Center=  8.8D-03, -9.5D-01, -5.0D-01, r^2= 7.2D-01
   Bfn.  Coefficient  Atom+Function         Bfn.  Coefficient  Atom+Function  
  ----- ------------  ---------------      ----- ------------  ---------------
    47      2.615717   4 C  s                48     -1.998828   4 C  s         
    46     -1.544600   4 C  s                49      1.361127   4 C  s         
    50     -1.171675   4 C  s                 2     -1.121686   1 C  s         
    51      1.054579   4 C  s                 3      0.860401   1 C  s         
    32      0.788153   3 C  s                 1      0.660484   1 C  s         
 
 Vector   80  Occ=0.000000D+00  E= 6.218510D+01
              MO Center= -5.3D-03,  8.5D-01, -6.7D-01, r^2= 9.1D-01
   Bfn.  Coefficient  Atom+Function         Bfn.  Coefficient  Atom+Function  
  ----- ------------  ---------------      ----- ------------  ---------------
    32      2.673681   3 C  s                33     -2.046292   3 C  s         
    31     -1.578016   3 C  s                34      1.402322   3 C  s         
    35     -1.229337   3 C  s                36      1.167071   3 C  s         
    47     -1.081100   4 C  s                48      0.829761   4 C  s         
     2     -0.642999   1 C  s                46      0.637597   4 C  s         
 
 Vector   81  Occ=0.000000D+00  E= 1.172724D+02
              MO Center=  1.6D-03,  1.7D-01,  1.3D+00, r^2= 4.4D-02
   Bfn.  Coefficient  Atom+Function         Bfn.  Coefficient  Atom+Function  
  ----- ------------  ---------------      ----- ------------  ---------------
    17      2.969797   2 O  s                18     -2.273862   2 O  s         
    16     -1.756180   2 O  s                19      1.435473   2 O  s         
    20     -1.084195   2 O  s                21      0.682616   2 O  s         
    15     -0.253681   1 C  pz                6     -0.234514   1 C  s         
    30     -0.106866   2 O  pz               60      0.083229   4 C  pz        
 

   alpha - beta orbital overlaps 
   ----------------------------- 


   alpha      1      2      3      4      5      6      7      8      9     10
    beta      1      2      3      4      5      6      7      8      9     10
 overlap   1.000  1.000  1.000  1.000  1.000  1.000  1.000  1.000  0.973  0.873


   alpha     11     12     13     14     15     16     17     18     19     20
    beta     11     12     16     13     15     14     17     18     19     20
 overlap   0.898  0.974  0.983  0.993  0.892  0.908  1.000  1.000  0.976  0.977


   alpha     21     22     23     24     25     26     27     28     29     30
    beta     21     22     23     24     25     26     27     28     29     30
 overlap   0.990  0.988  0.991  0.998  0.992  0.998  0.947  0.946  0.998  0.997


   alpha     31     32     33     34     35     36     37     38     39     40
    beta     31     32     33     34     35     36     37     38     39     40
 overlap   0.999  0.994  0.936  0.938  0.994  0.992  0.999  0.978  0.974  0.975


   alpha     41     42     43     44     45     46     47     48     49     50
    beta     41     42     43     44     45     46     47     48     49     50
 overlap   0.987  0.930  0.967  0.940  0.991  0.999  1.000  1.000  1.000  1.000


   alpha     51     52     53     54     55     56     57     58     59     60
    beta     51     52     53     54     55     56     57     58     59     60
 overlap   0.997  0.998  1.000  1.000  0.999  0.999  1.000  0.999  0.999  1.000


   alpha     61     62     63     64     65     66     67     68     69     70
    beta     61     62     63     64     65     66     67     68     69     70
 overlap   1.000  0.999  0.952  0.666  0.725  0.874  0.994  0.999  0.999  1.000


   alpha     71     72     73     74     75     76     77     78     79     80
    beta     71     72     73     74     75     76     77     78     79     80
 overlap   1.000  1.000  1.000  1.000  1.000  1.000  1.000  1.000  1.000  1.000


   alpha     81
    beta     81
 overlap   1.000

     --------------------------
     Expectation value of S2:  
     --------------------------
      <S2> =      0.7516 (Exact =     0.7500)
 

 center of mass
 --------------
 x =   0.00099978 y =   0.03050755 z =   0.10306921

 moments of inertia (a.u.)
 ------------------
         384.435310872521           2.278156791210          -0.039997695512
           2.278156791210         189.538604418888           0.410921390908
          -0.039997695512           0.410921390908         217.093707632568
 
     Multipole analysis of the density
     ---------------------------------
 
     L   x y z        total         alpha         beta         nuclear
     -   - - -        -----         -----         ----         -------
     0   0 0 0      2.000000    -16.000000    -15.000000     33.000000
 
     1   1 0 0     -0.052801      0.009648     -0.062449     -0.000000
     1   0 1 0     -0.693508     -0.436785     -0.256723      0.000000
     1   0 0 1     -0.455566     -0.230965     -0.224601      0.000000
 
     2   2 0 0    -14.202828    -12.962219    -12.248401     11.007792
     2   1 1 0     -0.207255      0.535667      0.966360     -1.709281
     2   1 0 1      0.274491     -0.094901      0.369056      0.000336
     2   0 2 0     -2.790129    -71.221229    -64.847318    133.278418
     2   0 1 1     -2.719040      0.024597      0.562770     -3.306408
     2   0 0 2     -4.940893    -59.088539    -54.126984    108.274630
 

 Task  times  cpu:      142.6s     wall:      147.0s
 
 
                                NWChem Input Module
                                -------------------
 
 
 Summary of allocated global arrays
-----------------------------------
  No active global arrays



                         GA Statistics for process    0
                         ------------------------------

       create   destroy   get      put      acc     scatter   gather  read&inc
calls: 1.26e+04 1.26e+04 8.09e+05 7.94e+04 6.43e+05    0        0     1.70e+04 
number of processes/call 1.04e+01 6.43e+01 6.24e+00 0.00e+00 0.00e+00
bytes total:             1.78e+09 2.74e+08 9.12e+08 0.00e+00 0.00e+00 1.36e+05
bytes remote:            1.44e+09 1.53e+08 7.83e+08 0.00e+00 0.00e+00 0.00e+00
Max memory consumed for GA by this process: 459552 bytes
 
 
 
                                     CITATION
                                     --------
                Please cite the following reference when publishing
                           results obtained with NWChem:
 
          E. Apr, E. J. Bylaska, W. A. de Jong, N. Govind, K. Kowalski,
       T. P. Straatsma, M. Valiev, H. J. J. van Dam, Y. Alexeev, J. Anchell,
       V. Anisimov, F. W. Aquino, R. Atta-Fynn, J. Autschbach, N. P. Bauman,
     J. C. Becca, D. E. Bernholdt, K. Bhaskaran-Nair, S. Bogatko, P. Borowski,
        J. Boschen, J. Brabec, A. Bruner, E. Caut, Y. Chen, G. N. Chuev,
      C. J. Cramer, J. Daily, M. J. O. Deegan, T. H. Dunning Jr., M. Dupuis,
   K. G. Dyall, G. I. Fann, S. A. Fischer, A. Fonari, H. Frchtl, L. Gagliardi,
      J. Garza, N. Gawande, S. Ghosh, K. Glaesemann, A. W. Gtz, J. Hammond,
       V. Helms, E. D. Hermes, K. Hirao, S. Hirata, M. Jacquelin, L. Jensen,
   B. G. Johnson, H. Jnsson, R. A. Kendall, M. Klemm, R. Kobayashi, V. Konkov,
      S. Krishnamoorthy, M. Krishnan, Z. Lin, R. D. Lins, R. J. Littlefield,
      A. J. Logsdail, K. Lopata, W. Ma, A. V. Marenich, J. Martin del Campo,
   D. Mejia-Rodriguez, J. E. Moore, J. M. Mullin, T. Nakajima, D. R. Nascimento,
    J. A. Nichols, P. J. Nichols, J. Nieplocha, A. Otero-de-la-Roza, B. Palmer,
    A. Panyala, T. Pirojsirikul, B. Peng, R. Peverati, J. Pittner, L. Pollack,
   R. M. Richard, P. Sadayappan, G. C. Schatz, W. A. Shelton, D. W. Silverstein,
   D. M. A. Smith, T. A. Soares, D. Song, M. Swart, H. L. Taylor, G. S. Thomas,
            V. Tipparaju, D. G. Truhlar, K. Tsemekhman, T. Van Voorhis,
     . Vzquez-Mayagoitia, P. Verma, O. Villa, A. Vishnu, K. D. Vogiatzis,
        D. Wang, J. H. Weare, M. J. Williamson, T. L. Windus, K. Woliski,
        A. T. Wong, Q. Wu, C. Yang, Q. Yu, M. Zacharias, Z. Zhang, Y. Zhao,
                                and R. J. Harrison
                        "NWChem: Past, present, and future
                         J. Chem. Phys. 152, 184102 (2020)
                               doi:10.1063/5.0004997
 
                                      AUTHORS
                                      -------
     E. Apra, E. J. Bylaska, N. Govind, K. Kowalski, M. Valiev, W. A. de Jong,
      T. P. Straatsma, H. J. J. van Dam, D. Wang, T. L. Windus, N. P. Bauman,
       A. Panyala, J. Hammond, J. Autschbach, K. Bhaskaran-Nair, J. Brabec,
    K. Lopata, S. A. Fischer, S. Krishnamoorthy, M. Jacquelin, W. Ma, M. Klemm,
       O. Villa, Y. Chen, V. Anisimov, F. Aquino, S. Hirata, M. T. Hackler,
           Eric Hermes, L. Jensen, J. E. Moore, J. C. Becca, V. Konjkov,
            D. Mejia-Rodriguez, T. Risthaus, M. Malagoli, A. Marenich,
   A. Otero-de-la-Roza, J. Mullin, P. Nichols, R. Peverati, J. Pittner, Y. Zhao,
        P.-D. Fan, A. Fonari, M. J. Williamson, R. J. Harrison, J. R. Rehr,
      M. Dupuis, D. Silverstein, D. M. A. Smith, J. Nieplocha, V. Tipparaju,
      M. Krishnan, B. E. Van Kuiken, A. Vazquez-Mayagoitia, M. Swart, Q. Wu,
   T. Van Voorhis, A. A. Auer, M. Nooijen, L. D. Crosby, E. Brown, G. Cisneros,
     G. I. Fann, H. Fruchtl, J. Garza, K. Hirao, R. A. Kendall, J. A. Nichols,
       K. Tsemekhman, K. Wolinski, J. Anchell, D. E. Bernholdt, P. Borowski,
       T. Clark, D. Clerc, H. Dachsel, M. J. O. Deegan, K. Dyall, D. Elwood,
      E. Glendening, M. Gutowski, A. C. Hess, J. Jaffe, B. G. Johnson, J. Ju,
        R. Kobayashi, R. Kutteh, Z. Lin, R. Littlefield, X. Long, B. Meng,
      T. Nakajima, S. Niu, L. Pollack, M. Rosing, K. Glaesemann, G. Sandrone,
      M. Stave, H. Taylor, G. Thomas, J. H. van Lenthe, A. T. Wong, Z. Zhang.

 Total times  cpu:      142.6s     wall:      147.0s
