 
             Northwest Computational Chemistry Package (NWChem) 7.0.0
             --------------------------------------------------------
 
 
                    Environmental Molecular Sciences Laboratory
                       Pacific Northwest National Laboratory
                                Richland, WA 99352
 
                              Copyright (c) 1994-2020
                       Pacific Northwest National Laboratory
                            Battelle Memorial Institute
 
             NWChem is an open-source computational chemistry package
                        distributed under the terms of the
                      Educational Community License (ECL) 2.0
             A copy of the license is included with this distribution
                              in the LICENSE.TXT file
 
                                  ACKNOWLEDGMENT
                                  --------------

            This software and its documentation were developed at the
            EMSL at Pacific Northwest National Laboratory, a multiprogram
            national laboratory, operated for the U.S. Department of Energy
            by Battelle under Contract Number DE-AC05-76RL01830. Support
            for this work was provided by the Department of Energy Office
            of Biological and Environmental Research, Office of Basic
            Energy Sciences, and the Office of Advanced Scientific Computing.


                                NWChem Input Module
                                -------------------
 
 
 Summary of "ao basis" -> "" (spherical)
 ------------------------------------------------------------------------------
       Tag                 Description            Shells   Functions and Types
 ---------------- ------------------------------  ------  ---------------------
 *                        ahlrichs_vtz                on all atoms 



 Scaling coordinates for geometry "geometry" by  1.889725989
 (inverse scale =  0.529177249)

 
 
                             Geometry "geometry" -> ""
                             -------------------------
 
 Output coordinates in angstroms (scale by  1.889725989 to convert to a.u.)
 
  No.       Tag          Charge          X              Y              Z
 ---- ---------------- ---------- -------------- -------------- --------------
    1 C                    6.0000    -0.79843942     0.30990207     0.33887916
    2 C                    6.0000     0.67514423     0.45746085     0.50260204
    3 C                    6.0000     1.66879601    -0.25625929    -0.27992317
    4 H                    1.0000     1.49651091    -1.34751320    -0.19139238
    5 H                    1.0000     2.69072439     0.00369119     0.00593318
    6 H                    1.0000     1.49715931    -0.06728824    -1.35841214
    7 O                    8.0000     1.14128512     1.28635695     1.41321037
    8 Cl                  17.0000    -1.29853960    -0.88185979    -0.96882573
    9 H                    1.0000    -1.24691761     1.28575182     0.08549893
   10 H                    1.0000    -1.24862695    -0.03152884     1.28668789
   11 H                    1.0000     0.48303709     1.79102609     1.96669101
 
      Atomic Mass 
      ----------- 
 
      C                 12.000000
      H                  1.007825
      O                 15.994910
      Cl                34.968850
 

 Effective nuclear repulsion energy (a.u.)     220.7492229455

            Nuclear Dipole moment (a.u.) 
            ----------------------------
        X                 Y               Z
 ---------------- ---------------- ----------------
    -0.0000000000     0.0000000000     0.0000000000
 
 
            XYZ format geometry
            -------------------
    11
 geometry
 C                    -0.79843942     0.30990207     0.33887916
 C                     0.67514423     0.45746085     0.50260204
 C                     1.66879601    -0.25625929    -0.27992317
 H                     1.49651091    -1.34751320    -0.19139238
 H                     2.69072439     0.00369119     0.00593318
 H                     1.49715931    -0.06728824    -1.35841214
 O                     1.14128512     1.28635695     1.41321037
 Cl                   -1.29853960    -0.88185979    -0.96882573
 H                    -1.24691761     1.28575182     0.08549893
 H                    -1.24862695    -0.03152884     1.28668789
 H                     0.48303709     1.79102609     1.96669101
 
 ==============================================================================
                                internuclear distances
 ------------------------------------------------------------------------------
       center one      |      center two      | atomic units |  angstroms
 ------------------------------------------------------------------------------
    2 C                |   1 C                |     2.81565  |     1.48998
    3 C                |   2 C                |     2.74439  |     1.45227
    4 H                |   3 C                |     2.09441  |     1.10831
    5 H                |   3 C                |     2.06459  |     1.09253
    6 H                |   3 C                |     2.09437  |     1.10829
    7 O                |   2 C                |     2.48811  |     1.31665
    8 Cl               |   1 C                |     3.47447  |     1.83861
    9 H                |   1 C                |     2.08523  |     1.10346
   10 H                |   1 C                |     2.08520  |     1.10344
   11 H                |   7 O                |     1.88435  |     0.99716
 ------------------------------------------------------------------------------
                         number of included internuclear distances:         10
 ==============================================================================



 ==============================================================================
                                 internuclear angles
 ------------------------------------------------------------------------------
        center 1       |       center 2       |       center 3       |  degrees
 ------------------------------------------------------------------------------
    2 C                |   1 C                |   8 Cl               |   114.29
    2 C                |   1 C                |   9 H                |   109.85
    2 C                |   1 C                |  10 H                |   109.86
    8 Cl               |   1 C                |   9 H                |   107.42
    8 Cl               |   1 C                |  10 H                |   107.42
    9 H                |   1 C                |  10 H                |   107.76
    1 C                |   2 C                |   3 C                |   124.67
    1 C                |   2 C                |   7 O                |   119.24
    3 C                |   2 C                |   7 O                |   116.09
    2 C                |   3 C                |   4 H                |   109.54
    2 C                |   3 C                |   5 H                |   112.46
    2 C                |   3 C                |   6 H                |   109.55
    4 H                |   3 C                |   5 H                |   111.02
    4 H                |   3 C                |   6 H                |   102.80
    5 H                |   3 C                |   6 H                |   111.03
    2 C                |   7 O                |  11 H                |   117.96
 ------------------------------------------------------------------------------
                            number of included internuclear angles:         16
 ==============================================================================



                              Aldehyde and Ketone set
                              -----------------------
 
                                 NWChem DFT Module
                                 -----------------
 
 
                              Aldehyde and Ketone set
 
 
                      Basis "ao basis" -> "ao basis" (spherical)
                      -----
  C (Carbon)
  ----------
            Exponent  Coefficients 
       -------------- ---------------------------------------------------------
  1 S  8.50603840E+03  0.000534
  1 S  1.27573290E+03  0.004125
  1 S  2.90311870E+02  0.021171
  1 S  8.20562000E+01  0.082418
  1 S  2.64796410E+01  0.240129
 
  2 S  9.24145850E+00  1.000000
 
  3 S  3.36435300E+00  1.000000
 
  4 S  8.71741640E-01  1.000000
 
  5 S  3.63523520E-01  1.000000
 
  6 S  1.28731350E-01  1.000000
 
  7 P  3.47094960E+01  0.005330
  7 P  7.95908830E+00  0.035866
  7 P  2.37869720E+00  0.142003
  7 P  8.15400650E-01  0.342031
 
  8 P  2.89537850E-01  1.000000
 
  9 P  1.00847540E-01  1.000000
 
  H (Hydrogen)
  ------------
            Exponent  Coefficients 
       -------------- ---------------------------------------------------------
  1 S  3.40613410E+01  0.006025
  1 S  5.12357460E+00  0.045021
  1 S  1.16466260E+00  0.201897
 
  2 S  3.27230410E-01  1.000000
 
  3 S  1.03072410E-01  1.000000
 
  O (Oxygen)
  ----------
            Exponent  Coefficients 
       -------------- ---------------------------------------------------------
  1 S  1.59026475E+04  0.000515
  1 S  2.38495378E+03  0.003982
  1 S  5.42719572E+02  0.020477
  1 S  1.53404079E+02  0.080262
  1 S  4.95457161E+01  0.237668
 
  2 S  1.73396499E+01  1.000000
 
  3 S  6.33033553E+00  1.000000
 
  4 S  1.69958822E+00  1.000000
 
  5 S  6.89544913E-01  1.000000
 
  6 S  2.39360282E-01  1.000000
 
  7 P  6.32705240E+01  0.006071
  7 P  1.46233123E+01  0.041948
  7 P  4.44895180E+00  0.161569
  7 P  1.52815132E+00  0.356828
 
  8 P  5.29973159E-01  1.000000
 
  9 P  1.75094460E-01  1.000000
 
  Cl (Chlorine)
  -------------
            Exponent  Coefficients 
       -------------- ---------------------------------------------------------
  1 S  1.17805790E+05  0.000242
  1 S  1.76602650E+04  0.001874
  1 S  4.01859730E+03  0.009736
  1 S  1.13622310E+03  0.039495
  1 S  3.68120620E+02  0.127972
 
  2 S  1.30861540E+02  1.000000
 
  3 S  5.04790110E+01  0.428741
  3 S  2.09168050E+01  0.196685
 
  4 S  6.35313880E+00  1.000000
 
  5 S  2.49480140E+00  1.000000
 
  6 S  5.43359480E-01  1.000000
 
  7 S  1.94343660E-01  1.000000
 
  8 P  6.81068790E+02  0.002366
  8 P  1.61113590E+02  0.018941
  8 P  5.13866370E+01  0.087845
  8 P  1.89585120E+01  0.257074
  8 P  3.00351580E+00  0.371524
 
  9 P  7.45652930E+00  1.000000
 
 10 P  1.06093610E+00  1.000000
 
 11 P  3.94520230E-01  1.000000
 
 12 P  1.33232790E-01  1.000000
 


 Summary of "ao basis" -> "ao basis" (spherical)
 ------------------------------------------------------------------------------
       Tag                 Description            Shells   Functions and Types
 ---------------- ------------------------------  ------  ---------------------
 C                        ahlrichs vtz               9       15   6s3p
 H                        ahlrichs vtz               3        3   3s
 O                        ahlrichs vtz               9       15   6s3p
 Cl                       ahlrichs vtz              12       22   7s5p




 Summary of "ao basis" -> "ao basis" (spherical)
 ------------------------------------------------------------------------------
       Tag                 Description            Shells   Functions and Types
 ---------------- ------------------------------  ------  ---------------------
 C                        ahlrichs vtz               9       15   6s3p
 H                        ahlrichs vtz               3        3   3s
 O                        ahlrichs vtz               9       15   6s3p
 Cl                       ahlrichs vtz              12       22   7s5p


  Caching 1-el integrals 
 
            General Information
            -------------------
          SCF calculation type: DFT
          Wavefunction type:  spin polarized.
          No. of atoms     :    11
          No. of electrons :    47
           Alpha electrons :    24
            Beta electrons :    23
          Charge           :     2
          Spin multiplicity:     2
          Use of symmetry is: off; symmetry adaption is: off
          Maximum number of iterations: ***
          This is a Direct SCF calculation.
          AO basis - number of functions:   100
                     number of shells:    66
          Convergence on energy requested:  1.00D-08
          Convergence on density requested:  1.00D-07
          Convergence on gradient requested:  1.00D-06
 
              XC Information
              --------------
                        PBE96 Method XC Functional
          PerdewBurkeErnzerhof Exchange Functional  1.000          
            Perdew 1991 LDA Correlation Functional  1.000 local    
           PerdewBurkeErnz. Correlation Functional  1.000 non-local
 
             Grid Information
             ----------------
          Grid used for XC integration:  fine      
          Radial quadrature: Mura-Knowles        
          Angular quadrature: Lebedev. 
          Tag              B.-S. Rad. Rad. Pts. Rad. Cut. Ang. Pts.
          ---              ---------- --------- --------- ---------
          C                   0.70       70          11.0       590
          H                   0.35       60          12.0       590
          O                   0.60       70          11.0       590
          Cl                  1.00      123          12.0       770
          Grid pruning is: on 
          Number of quadrature shells:   763
          Spatial weights used:  Erf1
 
          Convergence Information
          -----------------------
          Convergence aids based upon iterative change in 
          total energy or number of iterations. 
          Levelshifting, if invoked, occurs when the 
          HOMO/LUMO gap drops below (HL_TOL):  1.00D-02
          DIIS, if invoked, will attempt to extrapolate 
          using up to (NFOCK): 10 stored Fock matrices.

                    Damping( 0%)  Levelshifting(0.5)       DIIS
                  --------------- ------------------- ---------------
          dE  on:    start            ASAP                start   
          dE off:    2 iters        *** iters           *** iters 

 
      Screening Tolerance Information
      -------------------------------
          Density screening/tol_rho:  1.00D-12
          AO Gaussian exp screening on grid/accAOfunc:  18
          CD Gaussian exp screening on grid/accCDfunc:  20
          XC Gaussian exp screening on grid/accXCfunc:  20
          Schwarz screening/accCoul:  1.00D-12

      Dispersion Parameters
      ---------------------

           DFT-D3BJ Model   
          s6 scale factor  :        1.000000000000
          s8 scale factor  :        0.787500000000
          a1 parameter     :        0.428900000000
          a2 parameter     :        4.440700000000
              vdW contrib  :       -0.008470503430


 Forcing the number of linearly dependent vectors to be  0
 
      Superposition of Atomic Density Guess
      -------------------------------------
 
 Sum of atomic energies:        -650.27741822
   Time after variat. SCF:      0.1
   Time prior to 1st pass:      0.1

 Grid_pts file          = ./02_ClCH2COHCH3.gridpts.00
 Record size in doubles =  12289        No. of grid_pts per rec  =   3070
 Max. records in memory =     16        Max. recs in file   =  67550051

 Grid integrated density:      48.999998754845
 Requested integration accuracy:   0.10E-06

           Memory utilization after 1st SCF pass: 
           Heap Space remaining (MW):        0.00                 468
          Stack Space remaining (MW):      288.36           288357116

   convergence    iter        energy       DeltaE   RMS-Dens  Diis-err    time
 ---------------- ----- ----------------- --------- --------- ---------  ------
 d= 0,ls=0.0,diis     1   -653.6265048475 -8.74D+02  1.30D-02  1.37D+01     0.4
                                                     1.34D-02  1.26D+01
 d= 0,ls=0.5,diis     2   -651.9083983926  1.72D+00  5.09D-03  2.89D-01     0.8
                                                     4.92D-03  2.73D-01
 d= 0,ls=0.5,diis     3   -652.0151492457 -1.07D-01  1.27D-03  1.12D-01     1.2
                                                     1.20D-03  1.12D-01
 d= 0,ls=0.5,diis     4   -652.0449316074 -2.98D-02  5.40D-04  1.42D-02     1.5
                                                     5.52D-04  1.42D-02
 d= 0,ls=0.5,diis     5   -652.0508207481 -5.89D-03  2.84D-04  2.53D-03     1.9
                                                     3.02D-04  2.54D-03
 d= 0,ls=0.5,diis     6   -652.0521169731 -1.30D-03  1.21D-04  3.13D-04     2.2
                                                     1.46D-04  3.61D-04
 d= 0,ls=0.5,diis     7   -652.0524036531 -2.87D-04  6.11D-05  6.58D-05     2.6
                                                     9.42D-05  1.03D-04
 d= 0,ls=0.5,diis     8   -652.0525366196 -1.33D-04  4.22D-05  2.09D-05     3.0
                                                     7.58D-05  5.54D-05
 d= 0,ls=0.5,diis     9   -652.0526296251 -9.30D-05  3.30D-05  7.13D-06     3.3
                                                     6.62D-05  3.97D-05
 d= 0,ls=0.5,diis    10   -652.0527030250 -7.34D-05  3.32D-05  2.48D-06     3.7
                                                     6.00D-05  3.30D-05
 d= 0,ls=0.5,diis    11   -652.0527625439 -5.95D-05  2.15D-05  1.24D-06     4.1
                                                     5.31D-05  3.10D-05
 d= 0,ls=0.5,diis    12   -652.0528143909 -5.18D-05  3.82D-05  1.31D-06     4.4
                                                     5.22D-05  2.79D-05
 d= 0,ls=0.5,diis    13   -652.0528506595 -3.63D-05  2.12D-05  1.27D-05     4.8
                                                     4.39D-05  3.78D-05
 d= 0,ls=0.5,diis    14   -652.0528858686 -3.52D-05  1.68D-05  1.70D-05     5.2
                                                     4.03D-05  3.93D-05
 d= 0,ls=0.5,diis    15   -652.0529183737 -3.25D-05  1.04D-05  1.80D-05     5.5
                                                     3.75D-05  3.78D-05
 d= 0,ls=0.5,diis    16   -652.0529502276 -3.19D-05  2.71D-05  1.43D-05     5.9
                                                     3.76D-05  3.22D-05
 d= 0,ls=0.5,diis    17   -652.0529648378 -1.46D-05  3.20D-05  3.56D-05     6.3
                                                     3.69D-05  4.92D-05
 d= 0,ls=0.5,diis    18   -652.0529661974 -1.36D-06  1.80D-05  6.84D-05     6.6
                                                     2.82D-05  7.88D-05
 d= 0,ls=0.5,diis    19   -652.0529745272 -8.33D-06  1.01D-05  8.37D-05     7.0
                                                     2.46D-05  9.18D-05
 d= 0,ls=0.5,diis    20   -652.0529883312 -1.38D-05  9.06D-06  8.61D-05     7.3
                                                     2.30D-05  9.33D-05
 d= 0,ls=0.5,diis    21   -652.0530013410 -1.30D-05  8.12D-06  8.86D-05     7.7
                                                     2.12D-05  9.43D-05
 d= 0,ls=0.5,diis    22   -652.0530131020 -1.18D-05  3.95D-06  8.91D-05     8.1
                                                     1.98D-05  9.42D-05
 d= 0,ls=0.5,diis    23   -652.0530284858 -1.54D-05  9.23D-06  8.16D-05     8.5
                                                     1.87D-05  8.68D-05
 d= 0,ls=0.5,diis    24   -652.0530339559 -5.47D-06  2.75D-06  9.05D-05     8.9
                                                     1.79D-05  9.43D-05
 d= 0,ls=0.5,diis    25   -652.0530499108 -1.60D-05  7.33D-06  7.83D-05     9.3
                                                     1.78D-05  8.26D-05
 d= 0,ls=0.5,diis    26   -652.0530660695 -1.62D-05  9.25D-06  6.42D-05     9.8
                                                     1.97D-05  6.99D-05
 d= 0,ls=0.5,diis    27   -652.0530867634 -2.07D-05  4.78D-06  4.39D-05    10.3
                                                     1.77D-05  5.05D-05
 d= 0,ls=0.5,diis    28   -652.0531018027 -1.50D-05  1.21D-05  3.17D-05    10.8
                                                     1.70D-05  3.87D-05
 d= 0,ls=0.5,diis    29   -652.0531034759 -1.67D-06  3.95D-06  4.07D-05    11.3
                                                     1.41D-05  4.66D-05
 d= 0,ls=0.5,diis    30   -652.0531104578 -6.98D-06  2.61D-06  3.89D-05    11.7
                                                     1.29D-05  4.53D-05
 d= 0,ls=0.5,diis    31   -652.0531168572 -6.40D-06  1.31D-06  3.69D-05    12.2
                                                     1.23D-05  4.36D-05
 d= 0,ls=0.5,diis    32   -652.0531241321 -7.27D-06  2.78D-06  3.25D-05    12.7
                                                     1.16D-05  3.93D-05
 d= 0,ls=0.5,diis    33   -652.0531298648 -5.73D-06  2.66D-06  3.00D-05    13.1
                                                     1.18D-05  3.66D-05
 d= 0,ls=0.5,diis    34   -652.0531376191 -7.75D-06  1.40D-06  2.37D-05    13.6
                                                     1.13D-05  3.01D-05
 d= 0,ls=0.5,diis    35   -652.0531439658 -6.35D-06  1.88D-06  1.98D-05    14.1
                                                     1.09D-05  2.58D-05
 d= 0,ls=0.5,diis    36   -652.0531493129 -5.35D-06  1.86D-06  1.71D-05    14.5
                                                     1.03D-05  2.23D-05
 d= 0,ls=0.5,diis    37   -652.0531537673 -4.45D-06  6.65D-06  1.52D-05    14.9
                                                     1.00D-05  1.97D-05
 d= 0,ls=0.5,diis    38   -652.0531551902 -1.42D-06  5.48D-06  1.75D-05    15.3
                                                     8.69D-06  2.09D-05
 d= 0,ls=0.5,diis    39   -652.0531561712 -9.81D-07  2.51D-06  2.00D-05    15.8
                                                     7.62D-06  2.29D-05
 d= 0,ls=0.5,diis    40   -652.0531584822 -2.31D-06  2.70D-06  1.94D-05    16.2
                                                     7.20D-06  2.22D-05
 d= 0,ls=0.5,diis    41   -652.0531602805 -1.80D-06  1.82D-06  1.98D-05    16.6
                                                     6.96D-06  2.21D-05
 d= 0,ls=0.5,diis    42   -652.0531625914 -2.31D-06  1.58D-06  1.88D-05    17.0
                                                     6.70D-06  2.07D-05
 d= 0,ls=0.5,diis    43   -652.0531649816 -2.39D-06  2.46D-06  1.75D-05    17.5
                                                     6.93D-06  1.92D-05
 d= 0,ls=0.5,diis    44   -652.0531675742 -2.59D-06  4.38D-06  1.56D-05    17.9
                                                     8.71D-06  1.67D-05
 d= 0,ls=0.5,diis    45   -652.0531718540 -4.28D-06  1.71D-06  1.11D-05    18.3
                                                     7.16D-06  1.22D-05
 d= 0,ls=0.5,diis    46   -652.0531745279 -2.67D-06  2.09D-06  9.27D-06    18.7
                                                     7.01D-06  1.01D-05
 d= 0,ls=0.5,diis    47   -652.0531769929 -2.47D-06  1.52D-06  7.41D-06    19.2
                                                     7.03D-06  8.10D-06
 d= 0,ls=0.5,diis    48   -652.0531794247 -2.43D-06  5.27D-06  5.39D-06    19.6
                                                     6.52D-06  6.15D-06
 d= 0,ls=0.5,diis    49   -652.0531794449 -2.02D-08  2.51D-06  7.14D-06    20.0
                                                     5.98D-06  7.63D-06
 d= 0,ls=0.5,diis    50   -652.0531810486 -1.60D-06  1.42D-06  6.07D-06    20.4
                                                     5.52D-06  6.53D-06
 d= 0,ls=0.5,diis    51   -652.0531825690 -1.52D-06  1.75D-06  5.07D-06    20.9
                                                     5.55D-06  5.42D-06
 d= 0,ls=0.5,diis    52   -652.0531841723 -1.60D-06  1.27D-06  3.57D-06    21.3
                                                     5.07D-06  4.07D-06
 d= 0,ls=0.5,diis    53   -652.0531853255 -1.15D-06  1.03D-06  2.82D-06    21.7
                                                     4.81D-06  3.41D-06
 d= 0,ls=0.5,diis    54   -652.0531863315 -1.01D-06  9.47D-07  2.19D-06    22.2
                                                     4.62D-06  2.81D-06
 d= 0,ls=0.5,diis    55   -652.0531871817 -8.50D-07  1.80D-06  1.80D-06    22.6
                                                     4.20D-06  2.42D-06
 d= 0,ls=0.5,diis    56   -652.0531876741 -4.92D-07  1.20D-06  1.79D-06    23.0
                                                     3.79D-06  2.34D-06
 d= 0,ls=0.5,diis    57   -652.0531881337 -4.60D-07  1.59D-06  1.74D-06    23.5
                                                     3.52D-06  2.28D-06
 d= 0,ls=0.5,diis    58   -652.0531885103 -3.77D-07  2.25D-06  1.70D-06    24.0
                                                     3.32D-06  2.23D-06
 d= 0,ls=0.5,diis    59   -652.0531886514 -1.41D-07  1.28D-06  1.98D-06    24.5
                                                     3.32D-06  2.42D-06
 d= 0,ls=0.5,diis    60   -652.0531892637 -6.12D-07  7.89D-07  1.44D-06    24.9
                                                     2.96D-06  1.90D-06
 d= 0,ls=0.5,diis    61   -652.0531895916 -3.28D-07  9.45D-07  1.41D-06    25.3
                                                     2.68D-06  1.84D-06
 d= 0,ls=0.5,diis    62   -652.0531898281 -2.36D-07  1.84D-06  1.41D-06    25.8
                                                     2.61D-06  1.80D-06
 d= 0,ls=0.5,diis    63   -652.0531898883 -6.02D-08  2.42D-06  1.62D-06    26.2
                                                     2.73D-06  1.95D-06
 d= 0,ls=0.5,diis    64   -652.0531899243 -3.60D-08  1.17D-06  1.73D-06    26.7
                                                     2.61D-06  2.00D-06
 d= 0,ls=0.5,diis    65   -652.0531903343 -4.10D-07  1.28D-06  1.37D-06    27.1
                                                     2.49D-06  1.58D-06
 d= 0,ls=0.5,diis    66   -652.0531907009 -3.67D-07  6.83D-07  1.08D-06    27.5
                                                     2.09D-06  1.28D-06
 d= 0,ls=0.5,diis    67   -652.0531908964 -1.95D-07  3.60D-07  1.03D-06    28.0
                                                     2.02D-06  1.18D-06
 d= 0,ls=0.5,diis    68   -652.0531911095 -2.13D-07  4.92D-07  9.16D-07    28.4
                                                     1.93D-06  1.04D-06
 d= 0,ls=0.5,diis    69   -652.0531912860 -1.76D-07  1.03D-06  8.44D-07    28.8
                                                     1.86D-06  9.47D-07
 d= 0,ls=0.5,diis    70   -652.0531913860 -1.00D-07  6.55D-07  8.57D-07    29.3
                                                     1.77D-06  9.17D-07
 d= 0,ls=0.5,diis    71   -652.0531915445 -1.58D-07  4.53D-07  7.72D-07    29.8
                                                     1.76D-06  8.09D-07
 d= 0,ls=0.5,diis    72   -652.0531917172 -1.73D-07  6.19D-07  6.44D-07    30.3
                                                     1.87D-06  6.74D-07
 d= 0,ls=0.5,diis    73   -652.0531919102 -1.93D-07  6.08D-07  4.78D-07    30.7
                                                     1.83D-06  5.15D-07
 d= 0,ls=0.5,diis    74   -652.0531920773 -1.67D-07  3.46D-07  3.46D-07    31.2
                                                     1.58D-06  3.96D-07
 d= 0,ls=0.5,diis    75   -652.0531921730 -9.57D-08  5.80D-07  3.18D-07    31.6
                                                     1.47D-06  3.67D-07
 d= 0,ls=0.5,diis    76   -652.0531922542 -8.12D-08  8.94D-07  2.71D-07    32.0
                                                     1.38D-06  3.22D-07
 d= 0,ls=0.5,diis    77   -652.0531922748 -2.06D-08  5.23D-07  3.33D-07    32.5
                                                     1.19D-06  3.75D-07
 d= 0,ls=0.5,diis    78   -652.0531923099 -3.51D-08  2.44D-07  3.52D-07    32.9
                                                     1.07D-06  3.91D-07
 d= 0,ls=0.5,diis    79   -652.0531923590 -4.91D-08  4.91D-07  3.38D-07    33.3
                                                     9.93D-07  3.76D-07
 d= 0,ls=0.5,diis    80   -652.0531923847 -2.57D-08  1.49D-07  3.52D-07    33.8
                                                     9.32D-07  3.85D-07
 d= 0,ls=0.5,diis    81   -652.0531924388 -5.41D-08  3.67D-07  3.09D-07    34.2
                                                     9.98D-07  3.42D-07
 d= 0,ls=0.5,diis    82   -652.0531925063 -6.75D-08  2.97D-07  2.44D-07    34.7
                                                     9.16D-07  2.82D-07
 d= 0,ls=0.5,diis    83   -652.0531925524 -4.61D-08  2.52D-07  2.11D-07    35.2
                                                     9.06D-07  2.50D-07
 d= 0,ls=0.5,diis    84   -652.0531926025 -5.01D-08  4.55D-07  1.73D-07    35.6
                                                     1.02D-06  2.09D-07
 d= 0,ls=0.5,diis    85   -652.0531926600 -5.74D-08  2.72D-07  1.25D-07    36.1
                                                     8.18D-07  1.60D-07
 d= 0,ls=0.5,diis    86   -652.0531926878 -2.78D-08  4.17D-07  1.15D-07    36.5
                                                     7.66D-07  1.45D-07
 d= 0,ls=0.5,diis    87   -652.0531927001 -1.23D-08  2.21D-07  1.28D-07    37.0
                                                     6.67D-07  1.55D-07
 d= 0,ls=0.5,diis    88   -652.0531927169 -1.68D-08  1.35D-07  1.28D-07    37.4
                                                     6.30D-07  1.54D-07
 d= 0,ls=0.5,diis    89   -652.0531927370 -2.01D-08  6.29D-08  1.21D-07    37.8
                                                     6.16D-07  1.45D-07
 d= 0,ls=0.5,diis    90   -652.0531927590 -2.20D-08  1.06D-07  1.08D-07    38.3
                                                     5.99D-07  1.29D-07
 d= 0,ls=0.5,diis    91   -652.0531927790 -2.00D-08  1.64D-07  9.69D-08    38.7
                                                     5.54D-07  1.15D-07
 d= 0,ls=0.5,diis    92   -652.0531927924 -1.34D-08  1.29D-07  9.49D-08    39.1
                                                     5.44D-07  1.10D-07
 d= 0,ls=0.5,diis    93   -652.0531928086 -1.62D-08  1.12D-07  8.58D-08    39.6
                                                     5.19D-07  9.78D-08
 d= 0,ls=0.5,diis    94   -652.0531928225 -1.39D-08  8.92D-08  7.93D-08    40.1
                                                     5.05D-07  8.91D-08
 d= 0,ls=0.5,diis    95   -652.0531928375 -1.50D-08  1.71D-07  6.90D-08    40.6
                                                     5.41D-07  7.77D-08
 d= 0,ls=0.5,diis    96   -652.0531928524 -1.49D-08  2.32D-07  5.82D-08    41.1
                                                     4.62D-07  6.49D-08
 d= 0,ls=0.5,diis    97   -652.0531928583 -5.93D-09  9.75D-08  6.16D-08    41.5
                                                     4.44D-07  6.65D-08
 d= 0,ls=0.5,diis    98   -652.0531928695 -1.12D-08  1.20D-07  5.45D-08    42.0
                                                     4.53D-07  5.87D-08
 d= 0,ls=0.5,diis    99   -652.0531928816 -1.22D-08  1.72D-07  4.51D-08    42.4
                                                     4.65D-07  4.87D-08
 d= 0,ls=0.5,diis   100   -652.0531928918 -1.02D-08  1.28D-07  3.91D-08    42.8
                                                     4.61D-07  4.19D-08
 d= 0,ls=0.5,diis   101   -652.0531929034 -1.16D-08  9.44D-08  2.89D-08    43.2
                                                     4.35D-07  3.19D-08
 d= 0,ls=0.5,diis   102   -652.0531929128 -9.41D-09  9.60D-08  2.21D-08    43.6
                                                     3.97D-07  2.52D-08
 d= 0,ls=0.5,diis   103   -652.0531929195 -6.71D-09  8.61D-08  1.82D-08    43.9
                                                     3.61D-07  2.18D-08
 d= 0,ls=0.5,diis   104   -652.0531929243 -4.80D-09  8.59D-08  1.71D-08    44.3
                                                     3.32D-07  2.05D-08
 d= 0,ls=0.5,diis   105   -652.0531929285 -4.17D-09  1.78D-07  1.57D-08    44.6
                                                     3.11D-07  1.91D-08
 d= 0,ls=0.5,diis   106   -652.0531929303 -1.88D-09  1.32D-07  1.73D-08    45.1
                                                     2.74D-07  2.03D-08
 d= 0,ls=0.5,diis   107   -652.0531929322 -1.85D-09  1.17D-07  1.84D-08    45.5
                                                     2.48D-07  2.10D-08
 d= 0,ls=0.5,diis   108   -652.0531929337 -1.54D-09  1.09D-07  1.93D-08    45.9
                                                     2.23D-07  2.15D-08
 d= 0,ls=0.5,diis   109   -652.0531929350 -1.31D-09  4.36D-08  2.00D-08    46.2
                                                     2.03D-07  2.19D-08
 d= 0,ls=0.5,diis   110   -652.0531929372 -2.15D-09  1.11D-07  1.91D-08    46.6
                                                     2.18D-07  2.09D-08
 d= 0,ls=0.5,diis   111   -652.0531929403 -3.10D-09  2.00D-07  1.55D-08    47.0
                                                     2.94D-07  1.78D-08
 d= 0,ls=0.5,diis   112   -652.0531929454 -5.10D-09  5.44D-08  9.61D-09    47.3
                                                     2.17D-07  1.21D-08
 d= 0,ls=0.5,diis   113   -652.0531929478 -2.40D-09  8.59D-08  8.63D-09    47.7
                                                     2.12D-07  1.09D-08
 d= 0,ls=0.5,diis   114   -652.0531929494 -1.60D-09  4.73D-08  8.59D-09    48.1
                                                     1.81D-07  1.05D-08
 d= 0,ls=0.5,diis   115   -652.0531929508 -1.44D-09  3.72D-08  8.20D-09    48.4
                                                     1.69D-07  1.00D-08
 d= 0,ls=0.5,diis   116   -652.0531929522 -1.37D-09  4.85D-08  7.64D-09    48.8
                                                     1.81D-07  9.35D-09
 d= 0,ls=0.5,diis   117   -652.0531929542 -2.04D-09  4.79D-08  5.94D-09    49.1
                                                     1.60D-07  7.54D-09
 d= 0,ls=0.5,diis   118   -652.0531929552 -1.01D-09  2.94D-08  5.77D-09    49.5
                                                     1.52D-07  7.10D-09
 d= 0,ls=0.5,diis   119   -652.0531929564 -1.21D-09  4.83D-08  5.16D-09    49.9
                                                     1.41D-07  6.34D-09
 d= 0,ls=0.5,diis   120   -652.0531929573 -8.03D-10  3.26D-08  5.11D-09    50.2
                                                     1.32D-07  6.09D-09
 d= 0,ls=0.5,diis   121   -652.0531929580 -7.93D-10  4.18D-08  4.89D-09    50.8
                                                     1.24D-07  5.73D-09
 d= 0,ls=0.5,diis   122   -652.0531929587 -6.31D-10  8.94D-08  4.78D-09    51.1
                                                     1.22D-07  5.49D-09
 d= 0,ls=0.5,diis   123   -652.0531929587 -7.36D-11  4.12D-08  5.44D-09    51.5
                                                     1.01D-07  5.95D-09
 d= 0,ls=0.5,diis   124   -652.0531929591 -3.96D-10  2.99D-08  5.46D-09    51.9
                                                     9.36D-08  5.88D-09


         Total DFT energy =     -652.053192959556
      One electron energy =    -1311.255333496753
           Coulomb energy =      492.620249080462
          Exchange energy =      -52.515878609087
       Correlation energy =       -1.642982376202
 Nuclear repulsion energy =      220.749222945455

    Dispersion correction =       -0.008470503430

 Numeric. integr. density =       47.000000934589

     Total iterative time =     52.1s


 
                    DFT Final Alpha Molecular Orbital Analysis
                    ------------------------------------------
 
 Vector    1  Occ=1.000000D+00  E=-1.012285D+02
              MO Center= -1.3D+00, -8.8D-01, -9.7D-01, r^2= 3.1D-03
   Bfn.  Coefficient  Atom+Function         Bfn.  Coefficient  Atom+Function  
  ----- ------------  ---------------      ----- ------------  ---------------
    72      0.598212   8 Cl s                71      0.326056   8 Cl s         
    70      0.184381   8 Cl s         
 
 Vector    2  Occ=1.000000D+00  E=-1.929432D+01
              MO Center=  1.1D+00,  1.3D+00,  1.4D+00, r^2= 1.5D-02
   Bfn.  Coefficient  Atom+Function         Bfn.  Coefficient  Atom+Function  
  ----- ------------  ---------------      ----- ------------  ---------------
    56      0.424626   7 O  s                57      0.366219   7 O  s         
    55      0.299503   7 O  s                58      0.055400   7 O  s         
 
 Vector    3  Occ=1.000000D+00  E=-1.048398D+01
              MO Center=  6.8D-01,  4.6D-01,  5.0D-01, r^2= 2.8D-02
   Bfn.  Coefficient  Atom+Function         Bfn.  Coefficient  Atom+Function  
  ----- ------------  ---------------      ----- ------------  ---------------
    17      0.424333   2 C  s                18      0.359572   2 C  s         
    16      0.308820   2 C  s                19      0.057203   2 C  s         
 
 Vector    4  Occ=1.000000D+00  E=-1.043945D+01
              MO Center= -8.0D-01,  3.1D-01,  3.4D-01, r^2= 2.8D-02
   Bfn.  Coefficient  Atom+Function         Bfn.  Coefficient  Atom+Function  
  ----- ------------  ---------------      ----- ------------  ---------------
     2      0.424296   1 C  s                 3      0.359487   1 C  s         
     1      0.308826   1 C  s                 4      0.057448   1 C  s         
 
 Vector    5  Occ=1.000000D+00  E=-1.030045D+01
              MO Center=  1.7D+00, -2.6D-01, -2.8D-01, r^2= 2.8D-02
   Bfn.  Coefficient  Atom+Function         Bfn.  Coefficient  Atom+Function  
  ----- ------------  ---------------      ----- ------------  ---------------
    32      0.424179   3 C  s                33      0.359418   3 C  s         
    31      0.308796   3 C  s                34      0.057908   3 C  s         
 
 Vector    6  Occ=1.000000D+00  E=-9.726429D+00
              MO Center= -1.3D+00, -8.8D-01, -9.7D-01, r^2= 6.6D-02
   Bfn.  Coefficient  Atom+Function         Bfn.  Coefficient  Atom+Function  
  ----- ------------  ---------------      ----- ------------  ---------------
    74      0.582762   8 Cl s                73      0.523541   8 Cl s         
    72     -0.293275   8 Cl s                71     -0.113755   8 Cl s         
    75      0.060230   8 Cl s                70     -0.054096   8 Cl s         
    76     -0.027288   8 Cl s         
 
 Vector    7  Occ=1.000000D+00  E=-7.555515D+00
              MO Center= -1.3D+00, -8.8D-01, -9.7D-01, r^2= 5.8D-02
   Bfn.  Coefficient  Atom+Function         Bfn.  Coefficient  Atom+Function  
  ----- ------------  ---------------      ----- ------------  ---------------
    78      0.417380   8 Cl py               79     -0.380513   8 Cl pz        
    81      0.314866   8 Cl py               82     -0.287053   8 Cl pz        
    84      0.052484   8 Cl py               85     -0.047848   8 Cl pz        
 
 Vector    8  Occ=1.000000D+00  E=-7.549166D+00
              MO Center= -1.3D+00, -8.8D-01, -9.7D-01, r^2= 5.8D-02
   Bfn.  Coefficient  Atom+Function         Bfn.  Coefficient  Atom+Function  
  ----- ------------  ---------------      ----- ------------  ---------------
    79      0.400088   8 Cl pz               78      0.364708   8 Cl py        
    82      0.302006   8 Cl pz               81      0.275300   8 Cl py        
    77      0.160468   8 Cl px               80      0.121129   8 Cl px        
    85      0.050301   8 Cl pz               84      0.045852   8 Cl py        
 
 Vector    9  Occ=1.000000D+00  E=-7.533596D+00
              MO Center= -1.3D+00, -8.8D-01, -9.7D-01, r^2= 5.8D-02
   Bfn.  Coefficient  Atom+Function         Bfn.  Coefficient  Atom+Function  
  ----- ------------  ---------------      ----- ------------  ---------------
    77      0.541823   8 Cl px               80      0.408793   8 Cl px        
    79     -0.118621   8 Cl pz               78     -0.108278   8 Cl py        
    82     -0.089497   8 Cl pz               81     -0.081693   8 Cl py        
    83      0.066856   8 Cl px        
 
 Vector   10  Occ=1.000000D+00  E=-1.485555D+00
              MO Center=  9.2D-01,  1.1D+00,  1.3D+00, r^2= 5.7D-01
   Bfn.  Coefficient  Atom+Function         Bfn.  Coefficient  Atom+Function  
  ----- ------------  ---------------      ----- ------------  ---------------
    59      0.516552   7 O  s                60      0.259544   7 O  s         
    20      0.201628   2 C  s                57     -0.141259   7 O  s         
    56     -0.117621   7 O  s                58      0.112456   7 O  s         
    64     -0.101187   7 O  px               61     -0.094370   7 O  px        
    24      0.078812   2 C  pz               98      0.072144  11 H  s         
 
 Vector   11  Occ=1.000000D+00  E=-1.303082D+00
              MO Center= -1.1D+00, -5.1D-01, -5.7D-01, r^2= 1.2D+00
   Bfn.  Coefficient  Atom+Function         Bfn.  Coefficient  Atom+Function  
  ----- ------------  ---------------      ----- ------------  ---------------
    75      0.572881   8 Cl s                76      0.418266   8 Cl s         
    74     -0.342249   8 Cl s                 5      0.260189   1 C  s         
    73     -0.204933   8 Cl s                72      0.085216   8 Cl s         
     6      0.082778   1 C  s                88      0.073424   8 Cl pz        
    20      0.069669   2 C  s                87      0.066906   8 Cl py        
 
 Vector   12  Occ=1.000000D+00  E=-1.171116D+00
              MO Center=  1.9D-01,  2.2D-01,  2.4D-01, r^2= 2.6D+00
   Bfn.  Coefficient  Atom+Function         Bfn.  Coefficient  Atom+Function  
  ----- ------------  ---------------      ----- ------------  ---------------
    20      0.344959   2 C  s                75     -0.287254   8 Cl s         
     5      0.268817   1 C  s                76     -0.238123   8 Cl s         
    35      0.213670   3 C  s                59     -0.176372   7 O  s         
    74      0.169748   8 Cl s                60     -0.111275   7 O  s         
     6      0.103867   1 C  s                73      0.103050   8 Cl s         
 
 Vector   13  Occ=1.000000D+00  E=-1.102212D+00
              MO Center=  3.2D-01,  2.2D-01,  2.4D-01, r^2= 2.8D+00
   Bfn.  Coefficient  Atom+Function         Bfn.  Coefficient  Atom+Function  
  ----- ------------  ---------------      ----- ------------  ---------------
     5      0.352591   1 C  s                35     -0.301408   3 C  s         
    75     -0.181549   8 Cl s                22     -0.172698   2 C  px        
    76     -0.166551   8 Cl s                 6      0.132920   1 C  s         
    20     -0.118539   2 C  s                25     -0.114943   2 C  px        
    74      0.107630   8 Cl s                 3     -0.089318   1 C  s         
 
 Vector   14  Occ=1.000000D+00  E=-1.015792D+00
              MO Center=  1.1D+00,  7.6D-01,  8.4D-01, r^2= 2.4D+00
   Bfn.  Coefficient  Atom+Function         Bfn.  Coefficient  Atom+Function  
  ----- ------------  ---------------      ----- ------------  ---------------
    35      0.287079   3 C  s                63      0.238373   7 O  pz        
    62      0.217132   7 O  py               66      0.194064   7 O  pz        
    20     -0.187488   2 C  s                65      0.176783   7 O  py        
    24     -0.141290   2 C  pz               99      0.138289  11 H  s         
    98      0.130202  11 H  s                23     -0.128656   2 C  py        
 
 Vector   15  Occ=1.000000D+00  E=-9.351648D-01
              MO Center= -2.9D-01,  2.5D-01,  2.7D-01, r^2= 2.7D+00
   Bfn.  Coefficient  Atom+Function         Bfn.  Coefficient  Atom+Function  
  ----- ------------  ---------------      ----- ------------  ---------------
     7      0.262235   1 C  px               20      0.211284   2 C  s         
    10      0.208966   1 C  px               22     -0.186513   2 C  px        
     5     -0.172868   1 C  s                 6     -0.172455   1 C  s         
    25     -0.168177   2 C  px               76      0.128228   8 Cl s         
    35     -0.126429   3 C  s                88     -0.121664   8 Cl pz        
 
 Vector   16  Occ=1.000000D+00  E=-9.051069D-01
              MO Center= -5.6D-01,  2.8D-01,  3.0D-01, r^2= 2.2D+00
   Bfn.  Coefficient  Atom+Function         Bfn.  Coefficient  Atom+Function  
  ----- ------------  ---------------      ----- ------------  ---------------
     8      0.208262   1 C  py               11      0.203957   1 C  py        
     9     -0.189814   1 C  pz               12     -0.185874   1 C  pz        
    87      0.159825   8 Cl py               88     -0.145897   8 Cl pz        
    23      0.115796   2 C  py               92      0.108859   9 H  s         
    95     -0.108858  10 H  s                24     -0.105534   2 C  pz        
 
 Vector   17  Occ=1.000000D+00  E=-8.795581D-01
              MO Center= -5.0D-01, -2.4D-01, -2.7D-01, r^2= 3.5D+00
   Bfn.  Coefficient  Atom+Function         Bfn.  Coefficient  Atom+Function  
  ----- ------------  ---------------      ----- ------------  ---------------
    88      0.236510   8 Cl pz               87      0.215501   8 Cl py        
    12     -0.187634   1 C  pz               36     -0.181001   3 C  s         
    76     -0.173818   8 Cl s                 9     -0.172246   1 C  pz        
    11     -0.171037   1 C  py               35     -0.165050   3 C  s         
     8     -0.156999   1 C  py               28      0.151229   2 C  px        
 
 Vector   18  Occ=1.000000D+00  E=-8.284728D-01
              MO Center=  3.5D-01,  3.5D-01,  3.8D-01, r^2= 3.8D+00
   Bfn.  Coefficient  Atom+Function         Bfn.  Coefficient  Atom+Function  
  ----- ------------  ---------------      ----- ------------  ---------------
    87     -0.235214   8 Cl py               62      0.226615   7 O  py        
    88      0.214266   8 Cl pz               63     -0.206223   7 O  pz        
    65      0.198894   7 O  py               66     -0.181004   7 O  pz        
    23      0.140823   2 C  py               26      0.141367   2 C  py        
    24     -0.128507   2 C  pz               27     -0.128993   2 C  pz        
 
 Vector   19  Occ=1.000000D+00  E=-8.238178D-01
              MO Center=  7.7D-01,  5.8D-02,  6.4D-02, r^2= 3.5D+00
   Bfn.  Coefficient  Atom+Function         Bfn.  Coefficient  Atom+Function  
  ----- ------------  ---------------      ----- ------------  ---------------
    36      0.208381   3 C  s                21     -0.182304   2 C  s         
    61     -0.181876   7 O  px               64     -0.154419   7 O  px        
    24      0.153183   2 C  pz               39     -0.148943   3 C  pz        
    88      0.142120   8 Cl pz               25     -0.141288   2 C  px        
    23      0.139881   2 C  py               86      0.140182   8 Cl px        
 
 Vector   20  Occ=1.000000D+00  E=-7.852281D-01
              MO Center= -8.7D-01, -3.3D-01, -3.6D-01, r^2= 3.0D+00
   Bfn.  Coefficient  Atom+Function         Bfn.  Coefficient  Atom+Function  
  ----- ------------  ---------------      ----- ------------  ---------------
    87      0.359527   8 Cl py               88     -0.327040   8 Cl pz        
    84      0.160635   8 Cl py               90      0.157251   8 Cl py        
     8     -0.147854   1 C  py               85     -0.146114   8 Cl pz        
    91     -0.143071   8 Cl pz               93     -0.138775   9 H  s         
    96      0.138516  10 H  s                 9      0.134646   1 C  pz        
 
 Vector   21  Occ=1.000000D+00  E=-7.782344D-01
              MO Center=  3.1D-03,  5.2D-02,  5.7D-02, r^2= 4.8D+00
   Bfn.  Coefficient  Atom+Function         Bfn.  Coefficient  Atom+Function  
  ----- ------------  ---------------      ----- ------------  ---------------
    86      0.363867   8 Cl px               61      0.269471   7 O  px        
    64      0.224083   7 O  px               60      0.179715   7 O  s         
    20     -0.174977   2 C  s                28      0.173258   2 C  px        
    83      0.162745   8 Cl px               89      0.153672   8 Cl px        
    59      0.150472   7 O  s                88     -0.151115   8 Cl pz        
 
 Vector   22  Occ=1.000000D+00  E=-7.535060D-01
              MO Center=  1.4D+00,  4.0D-02,  4.5D-02, r^2= 2.5D+00
   Bfn.  Coefficient  Atom+Function         Bfn.  Coefficient  Atom+Function  
  ----- ------------  ---------------      ----- ------------  ---------------
    38      0.212469   3 C  py               41      0.201442   3 C  py        
    62     -0.202197   7 O  py               39     -0.193835   3 C  pz        
    42     -0.183778   3 C  pz               63      0.184009   7 O  pz        
    65     -0.175541   7 O  py               47     -0.164460   4 H  s         
    53      0.164575   6 H  s                66      0.159730   7 O  pz        
 
 Vector   23  Occ=1.000000D+00  E=-7.519929D-01
              MO Center=  1.8D+00, -8.5D-02, -9.1D-02, r^2= 1.9D+00
   Bfn.  Coefficient  Atom+Function         Bfn.  Coefficient  Atom+Function  
  ----- ------------  ---------------      ----- ------------  ---------------
    37      0.291831   3 C  px               40      0.268220   3 C  px        
    50      0.198694   5 H  s                49      0.175534   5 H  s         
    10      0.139407   1 C  px                7      0.124495   1 C  px        
    43      0.120161   3 C  px               39      0.110600   3 C  pz        
    42      0.108290   3 C  pz               38      0.101065   3 C  py        
 
 Vector   24  Occ=1.000000D+00  E=-7.426377D-01
              MO Center= -8.0D-02, -3.3D-02, -3.6D-02, r^2= 4.5D+00
   Bfn.  Coefficient  Atom+Function         Bfn.  Coefficient  Atom+Function  
  ----- ------------  ---------------      ----- ------------  ---------------
    86      0.419399   8 Cl px               61     -0.234156   7 O  px        
    64     -0.202786   7 O  px               89      0.194730   8 Cl px        
    83      0.188096   8 Cl px               22      0.167469   2 C  px        
    59     -0.139458   7 O  s                 7     -0.135358   1 C  px        
    77     -0.118600   8 Cl px               25      0.115798   2 C  px        
 
 Vector   25  Occ=0.000000D+00  E=-5.513508D-01
              MO Center=  7.1D-01,  4.8D-01,  5.3D-01, r^2= 2.0D+00
   Bfn.  Coefficient  Atom+Function         Bfn.  Coefficient  Atom+Function  
  ----- ------------  ---------------      ----- ------------  ---------------
    26      0.347758   2 C  py               23      0.318864   2 C  py        
    27     -0.316649   2 C  pz               24     -0.290402   2 C  pz        
    29      0.194730   2 C  py               62     -0.190024   7 O  py        
    30     -0.177203   2 C  pz               63      0.173099   7 O  pz        
    68     -0.169836   7 O  py               65     -0.163853   7 O  py        
 
 Vector   26  Occ=0.000000D+00  E=-5.066992D-01
              MO Center= -8.8D-01, -1.4D-01, -1.6D-01, r^2= 2.6D+00
   Bfn.  Coefficient  Atom+Function         Bfn.  Coefficient  Atom+Function  
  ----- ------------  ---------------      ----- ------------  ---------------
     6      0.526526   1 C  s                76     -0.478100   8 Cl s         
    12     -0.358320   1 C  pz               88     -0.342522   8 Cl pz        
     5      0.338975   1 C  s                11     -0.326560   1 C  py        
    91     -0.316057   8 Cl pz               87     -0.312130   8 Cl py        
    90     -0.288034   8 Cl py                9     -0.248159   1 C  pz        
 
 Vector   27  Occ=0.000000D+00  E=-3.772493D-01
              MO Center=  9.8D-02,  1.4D+00,  1.5D+00, r^2= 3.9D+00
   Bfn.  Coefficient  Atom+Function         Bfn.  Coefficient  Atom+Function  
  ----- ------------  ---------------      ----- ------------  ---------------
   100      0.827349  11 H  s                60     -0.565468   7 O  s         
    94      0.478858   9 H  s                97      0.479197  10 H  s         
    13      0.417195   1 C  px               99      0.414897  11 H  s         
    21     -0.335794   2 C  s                36     -0.326168   3 C  s         
     6     -0.271870   1 C  s                48      0.224037   4 H  s         
 
 Vector   28  Occ=0.000000D+00  E=-3.449203D-01
              MO Center= -7.1D-01,  5.6D-01,  6.1D-01, r^2= 5.2D+00
   Bfn.  Coefficient  Atom+Function         Bfn.  Coefficient  Atom+Function  
  ----- ------------  ---------------      ----- ------------  ---------------
     6      1.875672   1 C  s                94     -1.015503   9 H  s         
    97     -1.014504  10 H  s                15      0.700818   1 C  pz        
    14      0.639695   1 C  py               28      0.536602   2 C  px        
    21     -0.485698   2 C  s                 5      0.476407   1 C  s         
   100      0.461601  11 H  s                48     -0.343258   4 H  s         
 
 Vector   29  Occ=0.000000D+00  E=-3.073383D-01
              MO Center= -1.1D+00,  6.2D-01,  6.8D-01, r^2= 3.8D+00
   Bfn.  Coefficient  Atom+Function         Bfn.  Coefficient  Atom+Function  
  ----- ------------  ---------------      ----- ------------  ---------------
    94      1.620207   9 H  s                97     -1.621762  10 H  s         
    14     -0.982840   1 C  py               15      0.895317   1 C  pz        
    11     -0.395583   1 C  py               12      0.360776   1 C  pz        
    93      0.352605   9 H  s                96     -0.353108  10 H  s         
    29      0.313100   2 C  py               30     -0.284079   2 C  pz        
 
 Vector   30  Occ=0.000000D+00  E=-2.973619D-01
              MO Center=  6.8D-01, -2.6D-02, -3.0D-02, r^2= 5.7D+00
   Bfn.  Coefficient  Atom+Function         Bfn.  Coefficient  Atom+Function  
  ----- ------------  ---------------      ----- ------------  ---------------
    21      1.482829   2 C  s                36     -1.217135   3 C  s         
    48      1.051628   4 H  s                54      1.051822   6 H  s         
    60     -0.697300   7 O  s                13     -0.580565   1 C  px        
    45      0.474511   3 C  pz               44      0.432756   3 C  py        
    15     -0.418632   1 C  pz               30      0.398455   2 C  pz        
 
 Vector   31  Occ=0.000000D+00  E=-2.813346D-01
              MO Center= -2.9D-01,  3.0D-01,  3.3D-01, r^2= 4.5D+00
   Bfn.  Coefficient  Atom+Function         Bfn.  Coefficient  Atom+Function  
  ----- ------------  ---------------      ----- ------------  ---------------
    21      2.660416   2 C  s                13     -1.534110   1 C  px        
     6     -1.192780   1 C  s                20      0.601036   2 C  s         
    45     -0.503156   3 C  pz               48     -0.481800   4 H  s         
    54     -0.483777   6 H  s                44     -0.457716   3 C  py        
    10     -0.422685   1 C  px               25     -0.408803   2 C  px        
 
 Vector   32  Occ=0.000000D+00  E=-2.628242D-01
              MO Center=  9.8D-01, -5.2D-01, -5.7D-01, r^2= 4.6D+00
   Bfn.  Coefficient  Atom+Function         Bfn.  Coefficient  Atom+Function  
  ----- ------------  ---------------      ----- ------------  ---------------
    48      1.561244   4 H  s                54     -1.561495   6 H  s         
    44      0.921959   3 C  py               45     -0.840307   3 C  pz        
    29     -0.434257   2 C  py               30      0.395775   2 C  pz        
    41      0.314326   3 C  py               42     -0.286377   3 C  pz        
    38      0.207156   3 C  py               47      0.203803   4 H  s         
 
 Vector   33  Occ=0.000000D+00  E=-2.531062D-01
              MO Center=  1.7D+00,  1.9D-01,  2.1D-01, r^2= 4.6D+00
   Bfn.  Coefficient  Atom+Function         Bfn.  Coefficient  Atom+Function  
  ----- ------------  ---------------      ----- ------------  ---------------
    51      1.926024   5 H  s                43     -1.327782   3 C  px        
    21     -1.285800   2 C  s                36     -0.639796   3 C  s         
     6      0.631127   1 C  s                60      0.575193   7 O  s         
    94     -0.518125   9 H  s                97     -0.520206  10 H  s         
    13     -0.475481   1 C  px              100      0.428760  11 H  s         
 
 Vector   34  Occ=0.000000D+00  E=-2.091152D-01
              MO Center=  1.3D+00, -1.7D-01, -1.8D-01, r^2= 5.9D+00
   Bfn.  Coefficient  Atom+Function         Bfn.  Coefficient  Atom+Function  
  ----- ------------  ---------------      ----- ------------  ---------------
    36      2.011738   3 C  s                30      1.185008   2 C  pz        
    21     -1.177522   2 C  s                43     -1.178758   3 C  px        
    29      1.079971   2 C  py               15     -0.774464   1 C  pz        
    14     -0.706024   1 C  py               51      0.679557   5 H  s         
    45      0.639161   3 C  pz               28     -0.627932   2 C  px        
 
 Vector   35  Occ=0.000000D+00  E=-2.000965D-01
              MO Center=  3.0D-01,  9.0D-03,  9.2D-03, r^2= 7.8D+00
   Bfn.  Coefficient  Atom+Function         Bfn.  Coefficient  Atom+Function  
  ----- ------------  ---------------      ----- ------------  ---------------
    36     -1.962159   3 C  s                13      1.868758   1 C  px        
    28      1.845547   2 C  px               21      0.972976   2 C  s         
    43      0.839160   3 C  px                6      0.750529   1 C  s         
    45     -0.667633   3 C  pz               44     -0.608488   3 C  py        
    15      0.569873   1 C  pz               14      0.517434   1 C  py        
 
 Vector   36  Occ=0.000000D+00  E=-1.757001D-01
              MO Center= -2.0D-01,  3.9D-01,  4.2D-01, r^2= 6.4D+00
   Bfn.  Coefficient  Atom+Function         Bfn.  Coefficient  Atom+Function  
  ----- ------------  ---------------      ----- ------------  ---------------
    15      1.571081   1 C  pz               14      1.436520   1 C  py        
    76      0.792202   8 Cl s                45      0.705185   3 C  pz        
    44      0.645336   3 C  py               30     -0.586583   2 C  pz        
    13     -0.558214   1 C  px               48      0.559289   4 H  s         
    54      0.556437   6 H  s                29     -0.534285   2 C  py        
 
 Vector   37  Occ=0.000000D+00  E=-1.622522D-01
              MO Center=  9.3D-01,  2.0D-01,  2.2D-01, r^2= 4.6D+00
   Bfn.  Coefficient  Atom+Function         Bfn.  Coefficient  Atom+Function  
  ----- ------------  ---------------      ----- ------------  ---------------
    44      0.930289   3 C  py               48      0.924172   4 H  s         
    54     -0.925052   6 H  s                45     -0.848368   3 C  pz        
    14      0.767307   1 C  py               15     -0.705778   1 C  pz        
    94     -0.567333   9 H  s                97      0.568257  10 H  s         
    26     -0.427733   2 C  py               27      0.389630   2 C  pz        
 
 Vector   38  Occ=0.000000D+00  E=-1.333123D-01
              MO Center=  6.9D-01,  1.5D-01,  1.7D-01, r^2= 5.9D+00
   Bfn.  Coefficient  Atom+Function         Bfn.  Coefficient  Atom+Function  
  ----- ------------  ---------------      ----- ------------  ---------------
    51      1.936835   5 H  s                28      1.890845   2 C  px        
     6      1.727008   1 C  s                43     -1.557320   3 C  px        
    45     -1.418333   3 C  pz               44     -1.290336   3 C  py        
    30      1.016840   2 C  pz               48     -0.972489   4 H  s         
    54     -0.973264   6 H  s                29      0.927655   2 C  py        
 
 Vector   39  Occ=0.000000D+00  E=-1.245322D-01
              MO Center=  4.9D-01, -2.2D-01, -2.4D-01, r^2= 6.8D+00
   Bfn.  Coefficient  Atom+Function         Bfn.  Coefficient  Atom+Function  
  ----- ------------  ---------------      ----- ------------  ---------------
    43      1.760988   3 C  px               21      1.648037   2 C  s         
    36     -1.507332   3 C  s                 6     -1.288051   1 C  s         
    30     -1.284439   2 C  pz               29     -1.174238   2 C  py        
    45      0.911141   3 C  pz               44      0.828420   3 C  py        
    13     -0.664215   1 C  px               51     -0.654944   5 H  s         
 
 Vector   40  Occ=0.000000D+00  E=-1.176277D-01
              MO Center=  4.4D-01, -8.9D-02, -1.0D-01, r^2= 6.3D+00
   Bfn.  Coefficient  Atom+Function         Bfn.  Coefficient  Atom+Function  
  ----- ------------  ---------------      ----- ------------  ---------------
    14      1.834137   1 C  py               15     -1.673735   1 C  pz        
    94     -0.953941   9 H  s                97      0.955369  10 H  s         
    29     -0.500891   2 C  py               30      0.466719   2 C  pz        
    93     -0.467008   9 H  s                96      0.466216  10 H  s         
    44     -0.440778   3 C  py               45      0.394094   3 C  pz        
 
 Vector   41  Occ=0.000000D+00  E=-8.314925D-02
              MO Center=  8.2D-01,  6.3D-02,  6.9D-02, r^2= 7.1D+00
   Bfn.  Coefficient  Atom+Function         Bfn.  Coefficient  Atom+Function  
  ----- ------------  ---------------      ----- ------------  ---------------
    29      1.686545   2 C  py               44     -1.681081   3 C  py        
    30     -1.542890   2 C  pz               45      1.532308   3 C  pz        
    14     -1.007349   1 C  py               15      0.920375   1 C  pz        
    48     -0.621221   4 H  s                54      0.620351   6 H  s         
    94      0.437325   9 H  s                97     -0.438050  10 H  s         
 
 Vector   42  Occ=0.000000D+00  E=-7.793294D-02
              MO Center=  1.5D-01,  7.4D-05,  5.9D-04, r^2= 6.2D+00
   Bfn.  Coefficient  Atom+Function         Bfn.  Coefficient  Atom+Function  
  ----- ------------  ---------------      ----- ------------  ---------------
    30     -1.608424   2 C  pz               28      1.528789   2 C  px        
    29     -1.472262   2 C  py               36     -1.446561   3 C  s         
    15      0.933823   1 C  pz               43     -0.924228   3 C  px        
    45     -0.859407   3 C  pz               54     -0.861004   6 H  s         
    14      0.854241   1 C  py               48     -0.858354   4 H  s         
 
 Vector   43  Occ=0.000000D+00  E=-6.130709D-02
              MO Center=  8.4D-01,  5.6D-01,  6.1D-01, r^2= 7.8D+00
   Bfn.  Coefficient  Atom+Function         Bfn.  Coefficient  Atom+Function  
  ----- ------------  ---------------      ----- ------------  ---------------
    28      4.179515   2 C  px               36     -1.530430   3 C  s         
     6      1.432664   1 C  s                45     -1.376070   3 C  pz        
    44     -1.252783   3 C  py               13      0.921275   1 C  px        
    60     -0.731764   7 O  s                99     -0.617959  11 H  s         
    94      0.586699   9 H  s                97      0.585087  10 H  s         
 
 Vector   44  Occ=0.000000D+00  E=-4.710437D-02
              MO Center=  9.6D-01,  8.0D-01,  8.8D-01, r^2= 6.4D+00
   Bfn.  Coefficient  Atom+Function         Bfn.  Coefficient  Atom+Function  
  ----- ------------  ---------------      ----- ------------  ---------------
    43      1.877568   3 C  px              100      1.456419  11 H  s         
    30     -1.380746   2 C  pz               29     -1.255288   2 C  py        
    36     -1.090705   3 C  s                51     -0.970365   5 H  s         
    13      0.903973   1 C  px               35      0.807900   3 C  s         
    99     -0.768823  11 H  s                 6     -0.692468   1 C  s         
 
 Vector   45  Occ=0.000000D+00  E=-2.808014D-02
              MO Center= -4.6D-01, -2.5D-01, -2.8D-01, r^2= 7.9D+00
   Bfn.  Coefficient  Atom+Function         Bfn.  Coefficient  Atom+Function  
  ----- ------------  ---------------      ----- ------------  ---------------
     6      3.208575   1 C  s                28      2.949093   2 C  px        
    36     -2.346558   3 C  s                30     -1.865057   2 C  pz        
    29     -1.706464   2 C  py               91     -0.887466   8 Cl pz        
    90     -0.812541   8 Cl py              100      0.785327  11 H  s         
    13      0.762925   1 C  px               15      0.630751   1 C  pz        
 
 Vector   46  Occ=0.000000D+00  E=-1.867770D-02
              MO Center= -7.1D-01, -7.7D-01, -8.5D-01, r^2= 6.1D+00
   Bfn.  Coefficient  Atom+Function         Bfn.  Coefficient  Atom+Function  
  ----- ------------  ---------------      ----- ------------  ---------------
    14      2.095783   1 C  py               15     -1.913390   1 C  pz        
    29     -1.320176   2 C  py               90     -1.251837   8 Cl py        
    30      1.210173   2 C  pz               44      1.186654   3 C  py        
    91      1.144232   8 Cl pz               45     -1.082437   3 C  pz        
    94     -0.908897   9 H  s                97      0.910305  10 H  s         
 
 Vector   47  Occ=0.000000D+00  E= 5.484375D-03
              MO Center= -2.3D-01,  6.2D-01,  6.6D-01, r^2= 5.7D+00
   Bfn.  Coefficient  Atom+Function         Bfn.  Coefficient  Atom+Function  
  ----- ------------  ---------------      ----- ------------  ---------------
    21      1.978480   2 C  s                36     -1.224888   3 C  s         
     6     -1.098460   1 C  s                30     -1.085115   2 C  pz        
    51      1.070707   5 H  s                29     -0.998438   2 C  py        
    99     -0.930149  11 H  s               100      0.905067  11 H  s         
     5      0.828508   1 C  s                20     -0.739815   2 C  s         
 
 Vector   48  Occ=0.000000D+00  E= 6.678372D-03
              MO Center= -1.2D+00,  6.9D-01,  7.8D-01, r^2= 5.0D+00
   Bfn.  Coefficient  Atom+Function         Bfn.  Coefficient  Atom+Function  
  ----- ------------  ---------------      ----- ------------  ---------------
    94      3.107542   9 H  s                97     -3.113304  10 H  s         
    14     -1.938577   1 C  py               15      1.736579   1 C  pz        
    96      1.035782  10 H  s                93     -1.002685   9 H  s         
    11      0.707484   1 C  py               12     -0.657714   1 C  pz        
    44      0.331860   3 C  py               45     -0.275927   3 C  pz        
 
 Vector   49  Occ=0.000000D+00  E= 3.616803D-02
              MO Center= -9.1D-01, -2.5D-01, -2.8D-01, r^2= 6.5D+00
   Bfn.  Coefficient  Atom+Function         Bfn.  Coefficient  Atom+Function  
  ----- ------------  ---------------      ----- ------------  ---------------
    43      1.619343   3 C  px               94      1.366636   9 H  s         
    97      1.368335  10 H  s                36     -1.287590   3 C  s         
    51     -1.286333   5 H  s                89      1.193953   8 Cl px        
     5      0.916159   1 C  s                28      0.849485   2 C  px        
     6     -0.845170   1 C  s                86     -0.693544   8 Cl px        
 
 Vector   50  Occ=0.000000D+00  E= 5.620171D-02
              MO Center= -2.9D-01,  2.0D-01,  2.1D-01, r^2= 8.2D+00
   Bfn.  Coefficient  Atom+Function         Bfn.  Coefficient  Atom+Function  
  ----- ------------  ---------------      ----- ------------  ---------------
    28      6.081725   2 C  px               13      3.864104   1 C  px        
    21     -2.822228   2 C  s                94      2.387750   9 H  s         
    97      2.385047  10 H  s                 6      2.281609   1 C  s         
    45     -2.287990   3 C  pz               44     -2.086157   3 C  py        
    48     -1.775669   4 H  s                54     -1.773481   6 H  s         
 
 Vector   51  Occ=0.000000D+00  E= 7.403505D-02
              MO Center=  1.2D+00, -5.7D-01, -6.2D-01, r^2= 5.8D+00
   Bfn.  Coefficient  Atom+Function         Bfn.  Coefficient  Atom+Function  
  ----- ------------  ---------------      ----- ------------  ---------------
    48      2.925837   4 H  s                54     -2.927053   6 H  s         
    44      1.841960   3 C  py               45     -1.680067   3 C  pz        
    47     -1.023097   4 H  s                53      1.023878   6 H  s         
    94     -0.812952   9 H  s                97      0.815843  10 H  s         
    41     -0.676447   3 C  py               14      0.672706   1 C  py        
 
 Vector   52  Occ=0.000000D+00  E= 9.252460D-02
              MO Center=  1.1D+00, -5.2D-02, -5.6D-02, r^2= 5.0D+00
   Bfn.  Coefficient  Atom+Function         Bfn.  Coefficient  Atom+Function  
  ----- ------------  ---------------      ----- ------------  ---------------
    21      5.038652   2 C  s                28      3.431943   2 C  px        
     6      2.827284   1 C  s                36     -2.499355   3 C  s         
    20     -2.135413   2 C  s                30     -2.014598   2 C  pz        
    29     -1.837909   2 C  py               45     -1.540629   3 C  pz        
    43      1.433953   3 C  px               44     -1.404051   3 C  py        
 
 Vector   53  Occ=0.000000D+00  E= 1.232814D-01
              MO Center=  1.9D+00, -3.5D-01, -3.8D-01, r^2= 5.4D+00
   Bfn.  Coefficient  Atom+Function         Bfn.  Coefficient  Atom+Function  
  ----- ------------  ---------------      ----- ------------  ---------------
    51      2.270127   5 H  s                48     -1.588935   4 H  s         
    54     -1.588064   6 H  s                21      1.458066   2 C  s         
    50     -1.451880   5 H  s                36      0.976789   3 C  s         
    28     -0.931669   2 C  px               45     -0.767533   3 C  pz        
    44     -0.699294   3 C  py               40      0.651723   3 C  px        
 
 Vector   54  Occ=0.000000D+00  E= 1.303912D-01
              MO Center=  9.4D-01,  9.4D-01,  1.0D+00, r^2= 5.5D+00
   Bfn.  Coefficient  Atom+Function         Bfn.  Coefficient  Atom+Function  
  ----- ------------  ---------------      ----- ------------  ---------------
    14      1.977124   1 C  py               15     -1.802250   1 C  pz        
    29     -1.651610   2 C  py               94     -1.543800   9 H  s         
    97      1.546567  10 H  s                30      1.503912   2 C  pz        
    68      1.357668   7 O  py               69     -1.235896   7 O  pz        
    48     -0.831837   4 H  s                54      0.833830   6 H  s         
 
 Vector   55  Occ=0.000000D+00  E= 1.445106D-01
              MO Center=  1.6D+00, -1.2D-01, -1.3D-01, r^2= 6.4D+00
   Bfn.  Coefficient  Atom+Function         Bfn.  Coefficient  Atom+Function  
  ----- ------------  ---------------      ----- ------------  ---------------
    21      3.873252   2 C  s                51     -2.514487   5 H  s         
    43      2.118307   3 C  px               36      1.829851   3 C  s         
    35     -1.802824   3 C  s                20     -1.256230   2 C  s         
    13     -1.004601   1 C  px               48     -0.983787   4 H  s         
    54     -0.983439   6 H  s                50      0.809043   5 H  s         
 
 Vector   56  Occ=0.000000D+00  E= 1.600329D-01
              MO Center=  8.5D-01,  1.3D+00,  1.4D+00, r^2= 5.2D+00
   Bfn.  Coefficient  Atom+Function         Bfn.  Coefficient  Atom+Function  
  ----- ------------  ---------------      ----- ------------  ---------------
    21      4.791659   2 C  s                 6     -3.286842   1 C  s         
   100     -1.850589  11 H  s                28     -1.783444   2 C  px        
    69      1.679227   7 O  pz               68      1.528675   7 O  py        
    36     -1.079242   3 C  s                 5      0.854779   1 C  s         
    13     -0.834968   1 C  px               60     -0.756619   7 O  s         
 
 Vector   57  Occ=0.000000D+00  E= 2.065695D-01
              MO Center=  5.7D-01,  5.8D-01,  6.3D-01, r^2= 6.4D+00
   Bfn.  Coefficient  Atom+Function         Bfn.  Coefficient  Atom+Function  
  ----- ------------  ---------------      ----- ------------  ---------------
     6      6.412009   1 C  s                21     -5.549073   2 C  s         
    36      3.916677   3 C  s                 5     -2.253552   1 C  s         
    51     -2.016375   5 H  s                13      1.371383   1 C  px        
    67      1.201541   7 O  px               20      1.066697   2 C  s         
    43      1.039360   3 C  px               93     -0.929671   9 H  s         
 
 Vector   58  Occ=0.000000D+00  E= 2.996842D-01
              MO Center=  1.2D+00,  4.4D-01,  4.8D-01, r^2= 5.8D+00
   Bfn.  Coefficient  Atom+Function         Bfn.  Coefficient  Atom+Function  
  ----- ------------  ---------------      ----- ------------  ---------------
    21      6.436240   2 C  s                36     -6.032975   3 C  s         
    28     -2.129965   2 C  px                6     -1.950422   1 C  s         
    35      1.935729   3 C  s                67      1.944431   7 O  px        
    20     -1.479512   2 C  s                43      1.471911   3 C  px        
    13     -1.431975   1 C  px               69     -1.255010   7 O  pz        
 
 Vector   59  Occ=0.000000D+00  E= 3.451309D-01
              MO Center=  6.7D-01,  3.7D-01,  4.0D-01, r^2= 6.9D+00
   Bfn.  Coefficient  Atom+Function         Bfn.  Coefficient  Atom+Function  
  ----- ------------  ---------------      ----- ------------  ---------------
     6     11.837457   1 C  s                28     10.528734   2 C  px        
    36     -9.820034   3 C  s                13      3.651773   1 C  px        
    67     -2.892902   7 O  px                5     -2.259775   1 C  s         
    21     -2.236312   2 C  s                45     -2.183338   3 C  pz        
    30     -2.026635   2 C  pz               44     -1.989971   3 C  py        
 
 Vector   60  Occ=0.000000D+00  E= 5.473736D-01
              MO Center= -5.9D-01, -6.0D-01, -6.5D-01, r^2= 5.0D+00
   Bfn.  Coefficient  Atom+Function         Bfn.  Coefficient  Atom+Function  
  ----- ------------  ---------------      ----- ------------  ---------------
    36      7.182899   3 C  s                21     -4.716111   2 C  s         
    76     -3.972296   8 Cl s                28     -3.037482   2 C  px        
    75      2.630100   8 Cl s                30      2.310206   2 C  pz        
    43     -2.137296   3 C  px               29      2.107710   2 C  py        
     6      1.636227   1 C  s                35     -1.235456   3 C  s         
 
 Vector   61  Occ=0.000000D+00  E= 6.817331D-01
              MO Center=  9.2D-01,  9.9D-01,  1.1D+00, r^2= 3.5D+00
   Bfn.  Coefficient  Atom+Function         Bfn.  Coefficient  Atom+Function  
  ----- ------------  ---------------      ----- ------------  ---------------
    60      5.887551   7 O  s                21     -2.887485   2 C  s         
    59     -2.875724   7 O  s                30     -1.700699   2 C  pz        
    29     -1.548211   2 C  py               67     -0.886755   7 O  px        
    99     -0.861998  11 H  s                76     -0.832557   8 Cl s         
    69     -0.825148   7 O  pz               68     -0.750809   7 O  py        
 
 Vector   62  Occ=0.000000D+00  E= 8.681500D-01
              MO Center=  8.0D-02,  3.6D-01,  3.9D-01, r^2= 2.8D+00
   Bfn.  Coefficient  Atom+Function         Bfn.  Coefficient  Atom+Function  
  ----- ------------  ---------------      ----- ------------  ---------------
     6      1.712036   1 C  s                27      1.296438   2 C  pz        
    10      1.278202   1 C  px               26      1.179840   2 C  py        
    76     -1.002162   8 Cl s                25      0.956141   2 C  px        
    28      0.873822   2 C  px               60     -0.658786   7 O  s         
    75      0.660502   8 Cl s                12      0.620309   1 C  pz        
 
 Vector   63  Occ=0.000000D+00  E= 8.936028D-01
              MO Center=  5.4D-01,  4.0D-01,  4.4D-01, r^2= 1.9D+00
   Bfn.  Coefficient  Atom+Function         Bfn.  Coefficient  Atom+Function  
  ----- ------------  ---------------      ----- ------------  ---------------
    26      1.182859   2 C  py               27     -1.078057   2 C  pz        
    23     -0.854490   2 C  py               24      0.778508   2 C  pz        
    29     -0.685905   2 C  py               30      0.623698   2 C  pz        
    94      0.606221   9 H  s                97     -0.605877  10 H  s         
    14     -0.523452   1 C  py               15      0.477508   1 C  pz        
 
 Vector   64  Occ=0.000000D+00  E= 9.391067D-01
              MO Center= -2.0D-01,  2.7D-01,  2.9D-01, r^2= 2.9D+00
   Bfn.  Coefficient  Atom+Function         Bfn.  Coefficient  Atom+Function  
  ----- ------------  ---------------      ----- ------------  ---------------
    10      2.084654   1 C  px               25      1.988800   2 C  px        
     6      1.479296   1 C  s                13     -1.464065   1 C  px        
    30      0.897526   2 C  pz                7     -0.885011   1 C  px        
    29      0.818183   2 C  py               94     -0.811792   9 H  s         
    97     -0.811650  10 H  s                36     -0.736321   3 C  s         
 
 Vector   65  Occ=0.000000D+00  E= 9.981314D-01
              MO Center=  4.6D-02,  9.2D-02,  2.1D-01, r^2= 3.2D+00
   Bfn.  Coefficient  Atom+Function         Bfn.  Coefficient  Atom+Function  
  ----- ------------  ---------------      ----- ------------  ---------------
    14     -1.824883   1 C  py               11      1.800207   1 C  py        
    94      1.613481   9 H  s                15      1.525543   1 C  pz        
    97     -1.296674  10 H  s                41     -1.004821   3 C  py        
    36     -0.982988   3 C  s                 8     -0.916036   1 C  py        
    30     -0.916566   2 C  pz               12     -0.882638   1 C  pz        
 
 Vector   66  Occ=0.000000D+00  E= 9.982186D-01
              MO Center=  5.5D-01,  1.2D-01,  1.9D-02, r^2= 3.7D+00
   Bfn.  Coefficient  Atom+Function         Bfn.  Coefficient  Atom+Function  
  ----- ------------  ---------------      ----- ------------  ---------------
    36      2.047030   3 C  s                40     -1.566294   3 C  px        
    12     -1.485036   1 C  pz               60     -1.426034   7 O  s         
    25     -1.131323   2 C  px               42      1.106922   3 C  pz        
    97     -1.029545  10 H  s                29      1.017424   2 C  py        
    15      0.925557   1 C  pz               27      0.864031   2 C  pz        
 
 Vector   67  Occ=0.000000D+00  E= 1.082153D+00
              MO Center=  4.6D-01,  1.3D-01,  1.5D-01, r^2= 3.4D+00
   Bfn.  Coefficient  Atom+Function         Bfn.  Coefficient  Atom+Function  
  ----- ------------  ---------------      ----- ------------  ---------------
    51     -1.439392   5 H  s                43      1.420050   3 C  px        
    28      1.191740   2 C  px               36     -0.996506   3 C  s         
    12      0.926377   1 C  pz               11      0.843782   1 C  py        
     6      0.839065   1 C  s                40     -0.839178   3 C  px        
    42     -0.817151   3 C  pz               41     -0.743886   3 C  py        
 
 Vector   68  Occ=0.000000D+00  E= 1.114738D+00
              MO Center=  1.2D+00, -2.5D-02, -2.6D-02, r^2= 3.0D+00
   Bfn.  Coefficient  Atom+Function         Bfn.  Coefficient  Atom+Function  
  ----- ------------  ---------------      ----- ------------  ---------------
    41      1.608370   3 C  py               44     -1.531044   3 C  py        
    42     -1.464552   3 C  pz               45      1.393927   3 C  pz        
    48     -1.366774   4 H  s                54      1.365635   6 H  s         
    14     -0.991444   1 C  py               15      0.902922   1 C  pz        
    11      0.865925   1 C  py               29      0.866557   2 C  py        
 
 Vector   69  Occ=0.000000D+00  E= 1.203243D+00
              MO Center=  7.8D-01,  1.3D-01,  1.5D-01, r^2= 3.1D+00
   Bfn.  Coefficient  Atom+Function         Bfn.  Coefficient  Atom+Function  
  ----- ------------  ---------------      ----- ------------  ---------------
    27      1.598102   2 C  pz               26      1.455152   2 C  py        
    30     -1.192089   2 C  pz               42     -1.147835   3 C  pz        
[...]
    66      1.015732   7 O  pz               34      0.984734   3 C  s         
 
 Vector   84  Occ=0.000000D+00  E= 2.384417D+00
              MO Center=  1.5D+00,  2.9D-02,  3.4D-02, r^2= 2.9D+00
   Bfn.  Coefficient  Atom+Function         Bfn.  Coefficient  Atom+Function  
  ----- ------------  ---------------      ----- ------------  ---------------
    36      7.432535   3 C  s                35     -4.312005   3 C  s         
    21     -4.077039   2 C  s                34      2.887202   3 C  s         
    20      2.047589   2 C  s                28     -1.749702   2 C  px        
    19     -1.313292   2 C  s                30      1.298661   2 C  pz        
    43     -1.218416   3 C  px               47     -1.206026   4 H  s         
 
 Vector   85  Occ=0.000000D+00  E= 2.610505D+00
              MO Center=  8.9D-01,  9.5D-01,  1.0D+00, r^2= 3.0D+00
   Bfn.  Coefficient  Atom+Function         Bfn.  Coefficient  Atom+Function  
  ----- ------------  ---------------      ----- ------------  ---------------
     6      5.173034   1 C  s                28      4.475562   2 C  px        
    36     -4.339167   3 C  s                 5     -2.595745   1 C  s         
    35      2.418727   3 C  s                67     -1.565604   7 O  px        
     4      1.496733   1 C  s                34     -1.501883   3 C  s         
    13      1.488611   1 C  px               64      1.284069   7 O  px        
 
 Vector   86  Occ=0.000000D+00  E= 4.150558D+00
              MO Center=  1.1D+00,  1.3D+00,  1.4D+00, r^2= 8.9D-01
   Bfn.  Coefficient  Atom+Function         Bfn.  Coefficient  Atom+Function  
  ----- ------------  ---------------      ----- ------------  ---------------
    59      5.039089   7 O  s                58     -3.902920   7 O  s         
    60     -3.898764   7 O  s                21      1.627794   2 C  s         
    30      1.041343   2 C  pz               29      0.948124   2 C  py        
    57      0.815154   7 O  s                99      0.586620  11 H  s         
    67      0.492482   7 O  px               69      0.350953   7 O  pz        
 
 Vector   87  Occ=0.000000D+00  E= 8.512548D+00
              MO Center= -1.3D+00, -8.7D-01, -9.5D-01, r^2= 4.6D-01
   Bfn.  Coefficient  Atom+Function         Bfn.  Coefficient  Atom+Function  
  ----- ------------  ---------------      ----- ------------  ---------------
    74      3.250920   8 Cl s                73     -2.696821   8 Cl s         
    75     -2.148463   8 Cl s                76      1.643908   8 Cl s         
    36     -1.013772   3 C  s                21      0.877550   2 C  s         
     6     -0.589093   1 C  s                72      0.459099   8 Cl s         
    28      0.456016   2 C  px               15      0.434364   1 C  pz        
 
 Vector   88  Occ=0.000000D+00  E= 1.105993D+01
              MO Center=  5.3D-01,  3.5D-01,  3.9D-01, r^2= 9.5D-01
   Bfn.  Coefficient  Atom+Function         Bfn.  Coefficient  Atom+Function  
  ----- ------------  ---------------      ----- ------------  ---------------
    19     -2.863377   2 C  s                18      2.791321   2 C  s         
    20      2.423091   2 C  s                17     -1.459976   2 C  s         
    21     -1.460756   2 C  s                 4     -1.370917   1 C  s         
     3      1.360401   1 C  s                 5      1.100956   1 C  s         
    33      1.065361   3 C  s                34     -1.050299   3 C  s         
 
 Vector   89  Occ=0.000000D+00  E= 1.118929D+01
              MO Center= -5.4D-01,  3.3D-01,  3.6D-01, r^2= 7.0D-01
   Bfn.  Coefficient  Atom+Function         Bfn.  Coefficient  Atom+Function  
  ----- ------------  ---------------      ----- ------------  ---------------
     4     -3.163125   1 C  s                 3      2.990492   1 C  s         
     5      2.951101   1 C  s                 6     -2.937914   1 C  s         
    21      1.579729   2 C  s                 2     -1.559731   1 C  s         
    19      1.466142   2 C  s                20     -1.446706   2 C  s         
    18     -1.359593   2 C  s                28     -1.047311   2 C  px        
 
 Vector   90  Occ=0.000000D+00  E= 1.131352D+01
              MO Center=  1.6D+00, -1.8D-01, -2.0D-01, r^2= 5.8D-01
   Bfn.  Coefficient  Atom+Function         Bfn.  Coefficient  Atom+Function  
  ----- ------------  ---------------      ----- ------------  ---------------
    34     -3.274154   3 C  s                33      3.105781   3 C  s         
    35      3.022488   3 C  s                36     -2.901501   3 C  s         
    32     -1.620803   3 C  s                21      1.399915   2 C  s         
    20     -1.208201   2 C  s                19      1.179940   2 C  s         
    18     -1.083738   2 C  s                28      0.732500   2 C  px        
 
 Vector   91  Occ=0.000000D+00  E= 2.141985D+01
              MO Center=  1.1D+00,  1.3D+00,  1.4D+00, r^2= 2.0D-01
   Bfn.  Coefficient  Atom+Function         Bfn.  Coefficient  Atom+Function  
  ----- ------------  ---------------      ----- ------------  ---------------
    57      3.324088   7 O  s                58     -3.225959   7 O  s         
    59      2.588619   7 O  s                56     -1.742050   7 O  s         
    60     -1.628370   7 O  s                21      0.605179   2 C  s         
    30      0.447687   2 C  pz               29      0.407664   2 C  py        
    67      0.202075   7 O  px               36      0.198171   3 C  s         
 
 Vector   92  Occ=0.000000D+00  E= 4.020342D+01
              MO Center= -1.3D+00, -8.8D-01, -9.7D-01, r^2= 7.4D-02
   Bfn.  Coefficient  Atom+Function         Bfn.  Coefficient  Atom+Function  
  ----- ------------  ---------------      ----- ------------  ---------------
    78      1.962988   8 Cl py               79     -1.789519   8 Cl pz        
    81     -1.753497   8 Cl py               82      1.598540   8 Cl pz        
    84     -0.593317   8 Cl py               85      0.540885   8 Cl pz        
    87      0.266184   8 Cl py               88     -0.242660   8 Cl pz        
    90     -0.090406   8 Cl py               91      0.082414   8 Cl pz        
 
 Vector   93  Occ=0.000000D+00  E= 4.022153D+01
              MO Center= -1.3D+00, -8.8D-01, -9.7D-01, r^2= 7.4D-02
   Bfn.  Coefficient  Atom+Function         Bfn.  Coefficient  Atom+Function  
  ----- ------------  ---------------      ----- ------------  ---------------
    77      2.621143   8 Cl px               80     -2.340784   8 Cl px        
    83     -0.796591   8 Cl px               86      0.365601   8 Cl px        
    79     -0.320675   8 Cl pz               78     -0.294058   8 Cl py        
    82      0.286461   8 Cl pz               81      0.262683   8 Cl py        
    89     -0.133147   8 Cl px               85      0.097132   8 Cl pz        
 
 Vector   94  Occ=0.000000D+00  E= 4.022715D+01
              MO Center= -1.3D+00, -8.8D-01, -9.7D-01, r^2= 7.4D-02
   Bfn.  Coefficient  Atom+Function         Bfn.  Coefficient  Atom+Function  
  ----- ------------  ---------------      ----- ------------  ---------------
    79      1.938222   8 Cl pz               78      1.766655   8 Cl py        
    82     -1.729904   8 Cl pz               81     -1.576777   8 Cl py        
    85     -0.594265   8 Cl pz               84     -0.541661   8 Cl py        
    77      0.435578   8 Cl px               80     -0.388636   8 Cl px        
    88      0.280070   8 Cl pz               87      0.255277   8 Cl py        
 
 Vector   95  Occ=0.000000D+00  E= 6.199180D+01
              MO Center=  5.1D-01,  3.6D-01,  3.9D-01, r^2= 6.5D-01
   Bfn.  Coefficient  Atom+Function         Bfn.  Coefficient  Atom+Function  
  ----- ------------  ---------------      ----- ------------  ---------------
    17      2.495054   2 C  s                18     -1.901556   2 C  s         
    16     -1.475669   2 C  s                19      1.265959   2 C  s         
     2      1.257331   1 C  s                20     -1.015632   2 C  s         
     3     -0.957048   1 C  s                32      0.927697   3 C  s         
     1     -0.744278   1 C  s                33     -0.701190   3 C  s         
 
 Vector   96  Occ=0.000000D+00  E= 6.212911D+01
              MO Center= -5.2D-01,  3.3D-01,  3.6D-01, r^2= 4.4D-01
   Bfn.  Coefficient  Atom+Function         Bfn.  Coefficient  Atom+Function  
  ----- ------------  ---------------      ----- ------------  ---------------
     2      2.663263   1 C  s                 3     -2.038083   1 C  s         
     1     -1.571771   1 C  s                 4      1.398640   1 C  s         
    17     -1.257705   2 C  s                 5     -1.234910   1 C  s         
     6      1.219527   1 C  s                18      0.962833   2 C  s         
    16      0.741743   2 C  s                19     -0.672856   2 C  s         
 
 Vector   97  Occ=0.000000D+00  E= 6.226255D+01
              MO Center=  1.6D+00, -1.8D-01, -2.0D-01, r^2= 3.0D-01
   Bfn.  Coefficient  Atom+Function         Bfn.  Coefficient  Atom+Function  
  ----- ------------  ---------------      ----- ------------  ---------------
    32      2.792108   3 C  s                33     -2.136346   3 C  s         
    31     -1.647983   3 C  s                34      1.462088   3 C  s         
    35     -1.276278   3 C  s                36      1.211694   3 C  s         
    17     -0.947007   2 C  s                18      0.729107   2 C  s         
    21     -0.579129   2 C  s                16      0.556743   2 C  s         
 
 Vector   98  Occ=0.000000D+00  E= 1.173554D+02
              MO Center=  1.1D+00,  1.3D+00,  1.4D+00, r^2= 4.5D-02
   Bfn.  Coefficient  Atom+Function         Bfn.  Coefficient  Atom+Function  
  ----- ------------  ---------------      ----- ------------  ---------------
    56      2.970158   7 O  s                57     -2.274771   7 O  s         
    55     -1.756233   7 O  s                58      1.438000   7 O  s         
    59     -1.089039   7 O  s                60      0.687659   7 O  s         
    21     -0.261422   2 C  s                30     -0.192184   2 C  pz        
    29     -0.175006   2 C  py               36     -0.087789   3 C  s         
 
 Vector   99  Occ=0.000000D+00  E= 1.225231D+02
              MO Center= -1.3D+00, -8.8D-01, -9.7D-01, r^2= 3.8D-02
   Bfn.  Coefficient  Atom+Function         Bfn.  Coefficient  Atom+Function  
  ----- ------------  ---------------      ----- ------------  ---------------
    72      2.264572   8 Cl s                73     -1.721406   8 Cl s         
    71     -1.608752   8 Cl s                74      1.164479   8 Cl s         
    75     -0.540832   8 Cl s                76      0.401023   8 Cl s         
    36     -0.240245   3 C  s                21      0.213192   2 C  s         
     6     -0.169242   1 C  s                15      0.103511   1 C  pz        
 
 Vector  100  Occ=0.000000D+00  E= 8.990726D+02
              MO Center= -1.3D+00, -8.8D-01, -9.7D-01, r^2= 6.9D-03
   Bfn.  Coefficient  Atom+Function         Bfn.  Coefficient  Atom+Function  
  ----- ------------  ---------------      ----- ------------  ---------------
    71      2.342749   8 Cl s                70     -1.742278   8 Cl s         
    72     -1.317119   8 Cl s                73      0.702004   8 Cl s         
    74     -0.454218   8 Cl s                75      0.210171   8 Cl s         
    76     -0.156352   8 Cl s                36      0.093521   3 C  s         
    21     -0.082473   2 C  s                 6      0.065302   1 C  s         
 

   alpha - beta orbital overlaps 
   ----------------------------- 


   alpha      1      2      3      4      5      6      7      8      9     10
    beta      1      2      3      4      5      6      8      7      9     10
 overlap   1.000  1.000  1.000  1.000  1.000  1.000  1.000  1.000  1.000  1.000


   alpha     11     12     13     14     15     16     17     18     19     20
    beta     11     12     13     14     15     16     17     19     18     24
 overlap   0.995  0.993  0.996  1.000  0.999  0.990  0.996  0.943  0.996  0.875


   alpha     21     22     23     24     25     26     27     28     29     30
    beta     20     22     21     23     25     26     27     28     29     30
 overlap   0.986  0.925  0.999  0.985  1.000  1.000  1.000  1.000  1.000  1.000


   alpha     31     32     33     34     35     36     37     38     39     40
    beta     31     32     33     34     35     36     37     38     39     40
 overlap   1.000  1.000  1.000  0.998  0.996  0.997  0.999  0.998  0.998  0.990


   alpha     41     42     43     44     45     46     47     48     49     50
    beta     41     42     43     44     45     46     47     48     49     50
 overlap   0.986  0.996  0.996  0.999  0.997  0.983  0.998  0.992  0.999  0.999


   alpha     51     52     53     54     55     56     57     58     59     60
    beta     51     52     53     54     55     56     57     58     59     60
 overlap   0.998  1.000  0.999  1.000  1.000  1.000  1.000  1.000  1.000  0.999


   alpha     61     62     63     64     65     66     67     68     69     70
    beta     61     62     63     64     66     65     67     68     69     70
 overlap   1.000  1.000  1.000  1.000  0.897  0.897  1.000  1.000  1.000  1.000


   alpha     71     72     73     74     75     76     77     78     79     80
    beta     71     72     74     73     75     76     77     78     79     80
 overlap   0.999  0.999  0.992  0.999  0.999  1.000  0.986  0.993  1.000  1.000


   alpha     81     82     83     84     85     86     87     88     89     90
    beta     81     82     83     84     85     86     87     88     89     90
 overlap   1.000  1.000  1.000  1.000  1.000  1.000  1.000  1.000  1.000  1.000


   alpha     91     92     93     94     95     96     97     98     99    100
    beta     91     92     93     94     95     96     97     98     99    100
 overlap   1.000  1.000  1.000  1.000  1.000  1.000  1.000  1.000  1.000  1.000


     --------------------------
     Expectation value of S2:  
     --------------------------
      <S2> =      0.7513 (Exact =     0.7500)
 

 center of mass
 --------------
 x =  -0.09969806 y =  -0.05043340 z =  -0.05540121

 moments of inertia (a.u.)
 ------------------
         508.123011768388        -200.594590123488        -220.601808345261
        -200.594590123488         781.247784379163        -241.877282019976
        -220.601808345261        -241.877282019976         735.802628241442
 
     Multipole analysis of the density
     ---------------------------------
 
     L   x y z        total         alpha         beta         nuclear
     -   - - -        -----         -----         ----         -------
     0   0 0 0      2.000000    -24.000000    -23.000000     49.000000
 
     1   1 0 0     -0.579315      0.695138     -1.274453     -0.000000
     1   0 1 0      0.573974      0.832114     -0.258140      0.000000
     1   0 0 1      0.628974      0.913687     -0.284713      0.000000
 
     2   2 0 0    -13.164530   -148.106698   -141.541054    276.483222
     2   1 1 0      0.819496    -48.160739    -44.612079     93.592314
     2   1 0 1      0.908697    -52.976274    -49.076982    102.961953
     2   0 2 0    -15.392910    -73.016200    -68.672213    126.295503
     2   0 1 1      6.839514    -61.150042    -58.599439    126.588995
     2   0 0 2    -14.117041    -84.501243    -79.677038    150.061239
 

 Task  times  cpu:       51.0s     wall:       52.3s
 
 
                                NWChem Input Module
                                -------------------
 
 
 Summary of allocated global arrays
-----------------------------------
  No active global arrays



                         GA Statistics for process    0
                         ------------------------------

       create   destroy   get      put      acc     scatter   gather  read&inc
calls: 2443     2443     3.10e+05 1.45e+04 2.50e+05    0        0     4143     
number of processes/call 1.06e+01 6.95e+01 8.44e+00 0.00e+00 0.00e+00
bytes total:             6.13e+08 6.64e+07 3.55e+08 0.00e+00 0.00e+00 3.31e+04
bytes remote:            5.32e+08 4.30e+07 3.15e+08 0.00e+00 0.00e+00 0.00e+00
Max memory consumed for GA by this process: 494368 bytes
 
 
 
                                     CITATION
                                     --------
                Please cite the following reference when publishing
                           results obtained with NWChem:
 
          E. Apr, E. J. Bylaska, W. A. de Jong, N. Govind, K. Kowalski,
       T. P. Straatsma, M. Valiev, H. J. J. van Dam, Y. Alexeev, J. Anchell,
       V. Anisimov, F. W. Aquino, R. Atta-Fynn, J. Autschbach, N. P. Bauman,
     J. C. Becca, D. E. Bernholdt, K. Bhaskaran-Nair, S. Bogatko, P. Borowski,
        J. Boschen, J. Brabec, A. Bruner, E. Caut, Y. Chen, G. N. Chuev,
      C. J. Cramer, J. Daily, M. J. O. Deegan, T. H. Dunning Jr., M. Dupuis,
   K. G. Dyall, G. I. Fann, S. A. Fischer, A. Fonari, H. Frchtl, L. Gagliardi,
      J. Garza, N. Gawande, S. Ghosh, K. Glaesemann, A. W. Gtz, J. Hammond,
       V. Helms, E. D. Hermes, K. Hirao, S. Hirata, M. Jacquelin, L. Jensen,
   B. G. Johnson, H. Jnsson, R. A. Kendall, M. Klemm, R. Kobayashi, V. Konkov,
      S. Krishnamoorthy, M. Krishnan, Z. Lin, R. D. Lins, R. J. Littlefield,
      A. J. Logsdail, K. Lopata, W. Ma, A. V. Marenich, J. Martin del Campo,
   D. Mejia-Rodriguez, J. E. Moore, J. M. Mullin, T. Nakajima, D. R. Nascimento,
    J. A. Nichols, P. J. Nichols, J. Nieplocha, A. Otero-de-la-Roza, B. Palmer,
    A. Panyala, T. Pirojsirikul, B. Peng, R. Peverati, J. Pittner, L. Pollack,
   R. M. Richard, P. Sadayappan, G. C. Schatz, W. A. Shelton, D. W. Silverstein,
   D. M. A. Smith, T. A. Soares, D. Song, M. Swart, H. L. Taylor, G. S. Thomas,
            V. Tipparaju, D. G. Truhlar, K. Tsemekhman, T. Van Voorhis,
     . Vzquez-Mayagoitia, P. Verma, O. Villa, A. Vishnu, K. D. Vogiatzis,
        D. Wang, J. H. Weare, M. J. Williamson, T. L. Windus, K. Woliski,
        A. T. Wong, Q. Wu, C. Yang, Q. Yu, M. Zacharias, Z. Zhang, Y. Zhao,
                                and R. J. Harrison
                        "NWChem: Past, present, and future
                         J. Chem. Phys. 152, 184102 (2020)
                               doi:10.1063/5.0004997
 
                                      AUTHORS
                                      -------
     E. Apra, E. J. Bylaska, N. Govind, K. Kowalski, M. Valiev, W. A. de Jong,
      T. P. Straatsma, H. J. J. van Dam, D. Wang, T. L. Windus, N. P. Bauman,
       A. Panyala, J. Hammond, J. Autschbach, K. Bhaskaran-Nair, J. Brabec,
    K. Lopata, S. A. Fischer, S. Krishnamoorthy, M. Jacquelin, W. Ma, M. Klemm,
       O. Villa, Y. Chen, V. Anisimov, F. Aquino, S. Hirata, M. T. Hackler,
           Eric Hermes, L. Jensen, J. E. Moore, J. C. Becca, V. Konjkov,
            D. Mejia-Rodriguez, T. Risthaus, M. Malagoli, A. Marenich,
   A. Otero-de-la-Roza, J. Mullin, P. Nichols, R. Peverati, J. Pittner, Y. Zhao,
        P.-D. Fan, A. Fonari, M. J. Williamson, R. J. Harrison, J. R. Rehr,
      M. Dupuis, D. Silverstein, D. M. A. Smith, J. Nieplocha, V. Tipparaju,
      M. Krishnan, B. E. Van Kuiken, A. Vazquez-Mayagoitia, M. Swart, Q. Wu,
   T. Van Voorhis, A. A. Auer, M. Nooijen, L. D. Crosby, E. Brown, G. Cisneros,
     G. I. Fann, H. Fruchtl, J. Garza, K. Hirao, R. A. Kendall, J. A. Nichols,
       K. Tsemekhman, K. Wolinski, J. Anchell, D. E. Bernholdt, P. Borowski,
       T. Clark, D. Clerc, H. Dachsel, M. J. O. Deegan, K. Dyall, D. Elwood,
      E. Glendening, M. Gutowski, A. C. Hess, J. Jaffe, B. G. Johnson, J. Ju,
        R. Kobayashi, R. Kutteh, Z. Lin, R. Littlefield, X. Long, B. Meng,
      T. Nakajima, S. Niu, L. Pollack, M. Rosing, K. Glaesemann, G. Sandrone,
      M. Stave, H. Taylor, G. Thomas, J. H. van Lenthe, A. T. Wong, Z. Zhang.

 Total times  cpu:       51.0s     wall:       52.4s
