 
             Northwest Computational Chemistry Package (NWChem) 7.0.0
             --------------------------------------------------------
 
 
                    Environmental Molecular Sciences Laboratory
                       Pacific Northwest National Laboratory
                                Richland, WA 99352
 
                              Copyright (c) 1994-2020
                       Pacific Northwest National Laboratory
                            Battelle Memorial Institute
 
             NWChem is an open-source computational chemistry package
                        distributed under the terms of the
                      Educational Community License (ECL) 2.0
             A copy of the license is included with this distribution
                              in the LICENSE.TXT file
 
                                  ACKNOWLEDGMENT
                                  --------------

            This software and its documentation were developed at the
            EMSL at Pacific Northwest National Laboratory, a multiprogram
            national laboratory, operated for the U.S. Department of Energy
            by Battelle under Contract Number DE-AC05-76RL01830. Support
            for this work was provided by the Department of Energy Office
            of Biological and Environmental Research, Office of Basic
            Energy Sciences, and the Office of Advanced Scientific Computing.


                                NWChem Input Module
                                -------------------
 
 
 Summary of "ao basis" -> "" (spherical)
 ------------------------------------------------------------------------------
       Tag                 Description            Shells   Functions and Types
 ---------------- ------------------------------  ------  ---------------------
 *                        ahlrichs_vtz                on all atoms 



 Scaling coordinates for geometry "geometry" by  1.889725989
 (inverse scale =  0.529177249)

 
 
                             Geometry "geometry" -> ""
                             -------------------------
 
 Output coordinates in angstroms (scale by  1.889725989 to convert to a.u.)
 
  No.       Tag          Charge          X              Y              Z
 ---- ---------------- ---------- -------------- -------------- --------------
    1 C                    6.0000     1.66318888    -1.59036989     0.70311288
    2 H                    1.0000     1.64252999    -2.32009213     1.52717088
    3 H                    1.0000     2.44329495    -0.85108457     0.92785158
    4 H                    1.0000     1.93759252    -2.12740724    -0.21469979
    5 C                    6.0000     0.27763053    -0.94710130     0.60064094
    6 H                    1.0000    -0.49002374    -1.70271068     0.37966349
    7 H                    1.0000     0.00503378    -0.43221703     1.53222774
    8 C                    6.0000     0.30618379     0.15785424    -0.58059386
    9 H                    1.0000     1.04614266     0.92508152    -0.32558856
   10 H                    1.0000     0.58406396    -0.38580146    -1.49596277
   11 C                    6.0000    -1.02103248     0.69099515    -0.69526382
   12 H                    1.0000    -1.83407556     0.13196869    -1.17911899
   13 O                    8.0000    -1.30500911     1.84285676    -0.14202781
   14 H                    1.0000    -2.25030993     2.15113947    -0.18269776
 
      Atomic Mass 
      ----------- 
 
      C                 12.000000
      H                  1.007825
      O                 15.994910
 

 Effective nuclear repulsion energy (a.u.)     178.2771304169

            Nuclear Dipole moment (a.u.) 
            ----------------------------
        X                 Y               Z
 ---------------- ---------------- ----------------
     0.0000000000    -0.0000000000     0.0000000000
 
 
            XYZ format geometry
            -------------------
    14
 geometry
 C                     1.66318888    -1.59036989     0.70311288
 H                     1.64252999    -2.32009213     1.52717088
 H                     2.44329495    -0.85108457     0.92785158
 H                     1.93759252    -2.12740724    -0.21469979
 C                     0.27763053    -0.94710130     0.60064094
 H                    -0.49002374    -1.70271068     0.37966349
 H                     0.00503378    -0.43221703     1.53222774
 C                     0.30618379     0.15785424    -0.58059386
 H                     1.04614266     0.92508152    -0.32558856
 H                     0.58406396    -0.38580146    -1.49596277
 C                    -1.02103248     0.69099515    -0.69526382
 H                    -1.83407556     0.13196869    -1.17911899
 O                    -1.30500911     1.84285676    -0.14202781
 H                    -2.25030993     2.15113947    -0.18269776
 
 ==============================================================================
                                internuclear distances
 ------------------------------------------------------------------------------
       center one      |      center two      | atomic units |  angstroms
 ------------------------------------------------------------------------------
    2 H                |   1 C                |     2.08041  |     1.10091
    3 H                |   1 C                |     2.07493  |     1.09801
    4 H                |   1 C                |     2.07533  |     1.09822
    5 C                |   1 C                |     2.89324  |     1.53103
    6 H                |   5 C                |     2.07790  |     1.09958
    7 H                |   5 C                |     2.07635  |     1.09876
    8 C                |   5 C                |     3.05707  |     1.61773
    9 H                |   8 C                |     2.07113  |     1.09599
   10 H                |   8 C                |     2.07928  |     1.10031
   11 C                |   8 C                |     2.71154  |     1.43488
   12 H                |  11 C                |     2.07669  |     1.09894
   13 O                |  11 C                |     2.47366  |     1.30901
   14 H                |  13 O                |     1.88053  |     0.99513
 ------------------------------------------------------------------------------
                         number of included internuclear distances:         13
 ==============================================================================



 ==============================================================================
                                 internuclear angles
 ------------------------------------------------------------------------------
        center 1       |       center 2       |       center 3       |  degrees
 ------------------------------------------------------------------------------
    2 H                |   1 C                |   3 H                |   107.84
    2 H                |   1 C                |   4 H                |   107.83
    2 H                |   1 C                |   5 C                |   108.16
    3 H                |   1 C                |   4 H                |   108.83
    3 H                |   1 C                |   5 C                |   111.95
    4 H                |   1 C                |   5 C                |   112.06
    1 C                |   5 C                |   6 H                |   110.89
    1 C                |   5 C                |   7 H                |   111.39
    1 C                |   5 C                |   8 C                |   108.66
    6 H                |   5 C                |   7 H                |   108.61
    6 H                |   5 C                |   8 C                |   109.57
    7 H                |   5 C                |   8 C                |   107.66
    5 C                |   8 C                |   9 H                |   108.67
    5 C                |   8 C                |  10 H                |   105.93
    5 C                |   8 C                |  11 C                |   107.21
    9 H                |   8 C                |  10 H                |   111.65
    9 H                |   8 C                |  11 C                |   112.52
   10 H                |   8 C                |  11 C                |   110.53
    8 C                |  11 C                |  12 H                |   122.04
    8 C                |  11 C                |  13 O                |   119.59
   12 H                |  11 C                |  13 O                |   118.24
   11 C                |  13 O                |  14 H                |   117.48
 ------------------------------------------------------------------------------
                            number of included internuclear angles:         22
 ==============================================================================



                              Aldehyde and Ketone set
                              -----------------------
 
                                 NWChem DFT Module
                                 -----------------
 
 
                              Aldehyde and Ketone set
 
 
                      Basis "ao basis" -> "ao basis" (spherical)
                      -----
  C (Carbon)
  ----------
            Exponent  Coefficients 
       -------------- ---------------------------------------------------------
  1 S  8.50603840E+03  0.000534
  1 S  1.27573290E+03  0.004125
  1 S  2.90311870E+02  0.021171
  1 S  8.20562000E+01  0.082418
  1 S  2.64796410E+01  0.240129
 
  2 S  9.24145850E+00  1.000000
 
  3 S  3.36435300E+00  1.000000
 
  4 S  8.71741640E-01  1.000000
 
  5 S  3.63523520E-01  1.000000
 
  6 S  1.28731350E-01  1.000000
 
  7 P  3.47094960E+01  0.005330
  7 P  7.95908830E+00  0.035866
  7 P  2.37869720E+00  0.142003
  7 P  8.15400650E-01  0.342031
 
  8 P  2.89537850E-01  1.000000
 
  9 P  1.00847540E-01  1.000000
 
  H (Hydrogen)
  ------------
            Exponent  Coefficients 
       -------------- ---------------------------------------------------------
  1 S  3.40613410E+01  0.006025
  1 S  5.12357460E+00  0.045021
  1 S  1.16466260E+00  0.201897
 
  2 S  3.27230410E-01  1.000000
 
  3 S  1.03072410E-01  1.000000
 
  O (Oxygen)
  ----------
            Exponent  Coefficients 
       -------------- ---------------------------------------------------------
  1 S  1.59026475E+04  0.000515
  1 S  2.38495378E+03  0.003982
  1 S  5.42719572E+02  0.020477
  1 S  1.53404079E+02  0.080262
  1 S  4.95457161E+01  0.237668
 
  2 S  1.73396499E+01  1.000000
 
  3 S  6.33033553E+00  1.000000
 
  4 S  1.69958822E+00  1.000000
 
  5 S  6.89544913E-01  1.000000
 
  6 S  2.39360282E-01  1.000000
 
  7 P  6.32705240E+01  0.006071
  7 P  1.46233123E+01  0.041948
  7 P  4.44895180E+00  0.161569
  7 P  1.52815132E+00  0.356828
 
  8 P  5.29973159E-01  1.000000
 
  9 P  1.75094460E-01  1.000000
 


 Summary of "ao basis" -> "ao basis" (spherical)
 ------------------------------------------------------------------------------
       Tag                 Description            Shells   Functions and Types
 ---------------- ------------------------------  ------  ---------------------
 C                        ahlrichs vtz               9       15   6s3p
 H                        ahlrichs vtz               3        3   3s
 O                        ahlrichs vtz               9       15   6s3p




 Summary of "ao basis" -> "ao basis" (spherical)
 ------------------------------------------------------------------------------
       Tag                 Description            Shells   Functions and Types
 ---------------- ------------------------------  ------  ---------------------
 C                        ahlrichs vtz               9       15   6s3p
 H                        ahlrichs vtz               3        3   3s
 O                        ahlrichs vtz               9       15   6s3p


  Caching 1-el integrals 
 
            General Information
            -------------------
          SCF calculation type: DFT
          Wavefunction type:  spin polarized.
          No. of atoms     :    14
          No. of electrons :    39
           Alpha electrons :    20
            Beta electrons :    19
          Charge           :     2
          Spin multiplicity:     2
          Use of symmetry is: off; symmetry adaption is: off
          Maximum number of iterations: ***
          This is a Direct SCF calculation.
          AO basis - number of functions:   102
                     number of shells:    72
          Convergence on energy requested:  1.00D-08
          Convergence on density requested:  1.00D-07
          Convergence on gradient requested:  1.00D-06
 
              XC Information
              --------------
                        PBE96 Method XC Functional
          PerdewBurkeErnzerhof Exchange Functional  1.000          
            Perdew 1991 LDA Correlation Functional  1.000 local    
           PerdewBurkeErnz. Correlation Functional  1.000 non-local
 
             Grid Information
             ----------------
          Grid used for XC integration:  fine      
          Radial quadrature: Mura-Knowles        
          Angular quadrature: Lebedev. 
          Tag              B.-S. Rad. Rad. Pts. Rad. Cut. Ang. Pts.
          ---              ---------- --------- --------- ---------
          C                   0.70       70          14.0       590
          H                   0.35       60          14.0       590
          O                   0.60       70          13.0       590
          Grid pruning is: on 
          Number of quadrature shells:   890
          Spatial weights used:  Erf1
 
          Convergence Information
          -----------------------
          Convergence aids based upon iterative change in 
          total energy or number of iterations. 
          Levelshifting, if invoked, occurs when the 
          HOMO/LUMO gap drops below (HL_TOL):  1.00D-02
          DIIS, if invoked, will attempt to extrapolate 
          using up to (NFOCK): 10 stored Fock matrices.

                    Damping( 0%)  Levelshifting(0.5)       DIIS
                  --------------- ------------------- ---------------
          dE  on:    start            ASAP                start   
          dE off:    2 iters        *** iters           *** iters 

 
      Screening Tolerance Information
      -------------------------------
          Density screening/tol_rho:  1.00D-12
          AO Gaussian exp screening on grid/accAOfunc:  18
          CD Gaussian exp screening on grid/accCDfunc:  20
          XC Gaussian exp screening on grid/accXCfunc:  20
          Schwarz screening/accCoul:  1.00D-12

      Dispersion Parameters
      ---------------------

           DFT-D3BJ Model   
          s6 scale factor  :        1.000000000000
          s8 scale factor  :        0.787500000000
          a1 parameter     :        0.428900000000
          a2 parameter     :        4.440700000000
              vdW contrib  :       -0.009337468875


 Forcing the number of linearly dependent vectors to be  0
 
      Superposition of Atomic Density Guess
      -------------------------------------
 
 Sum of atomic energies:        -229.96677482
   Time after variat. SCF:      0.2
   Time prior to 1st pass:      0.2

 Grid_pts file          = ./03_CH3CH2CH2CHOH.gridpts.00
 Record size in doubles =  12289        No. of grid_pts per rec  =   3070
 Max. records in memory =     14        Max. recs in file   =  67550051

 Grid integrated density:      41.000001176578
 Requested integration accuracy:   0.10E-06

           Memory utilization after 1st SCF pass: 
           Heap Space remaining (MW):        0.00                 351
          Stack Space remaining (MW):      288.36           288356932

   convergence    iter        energy       DeltaE   RMS-Dens  Diis-err    time
 ---------------- ----- ----------------- --------- --------- ---------  ------
 d= 0,ls=0.0,diis     1   -233.3939100411 -4.12D+02  1.34D-02  1.51D+01     0.5
                                                     1.30D-02  1.36D+01
 d= 0,ls=0.0,diis     2   -231.6060238059  1.79D+00  2.43D-02  3.22D-01     0.9
                                                     2.44D-02  3.46D-01
 d= 0,ls=0.5,diis     3   -224.6721671673  6.93D+00  5.84D-03  6.22D+00     1.2
                                                     5.96D-03  5.86D+00
 d= 0,ls=0.5,diis     4   -226.6114266150 -1.94D+00  6.70D-03  4.92D+00     1.6
                                                     7.52D-03  5.24D+00
 d= 0,ls=0.5,diis     5   -228.4520048046 -1.84D+00  6.10D-03  4.10D+00     2.0
                                                     5.75D-03  4.26D+00
 d= 0,ls=0.5,diis     6   -229.6830608572 -1.23D+00  5.73D-03  2.75D+00     2.4
                                                     4.69D-03  2.71D+00
 d= 0,ls=0.5,diis     7   -230.6903228356 -1.01D+00  3.36D-03  1.46D+00     2.8
                                                     2.69D-03  1.42D+00
 d= 0,ls=0.5,diis     8   -231.2051678017 -5.15D-01  2.15D-03  8.11D-01     3.1
                                                     1.74D-03  7.74D-01
 d= 0,ls=0.5,diis     9   -231.4882460060 -2.83D-01  1.72D-03  4.62D-01     3.5
                                                     1.43D-03  4.31D-01
 d= 0,ls=0.5,diis    10   -231.6820472121 -1.94D-01  1.50D-03  2.19D-01     3.9
                                                     1.22D-03  1.96D-01
 d= 0,ls=0.5,diis    11   -231.8007361695 -1.19D-01  1.09D-03  7.68D-02     4.3
                                                     8.96D-04  6.70D-02
 d= 0,ls=0.5,diis    12   -231.8533602970 -5.26D-02  7.23D-04  2.04D-02     4.7
                                                     6.11D-04  1.75D-02
 d= 0,ls=0.5,diis    13   -231.8733904922 -2.00D-02  4.60D-04  5.68D-03     5.0
                                                     4.07D-04  5.03D-03
 d= 0,ls=0.5,diis    14   -231.8811801463 -7.79D-03  3.28D-04  2.04D-03     5.4
                                                     3.06D-04  2.01D-03
 d= 0,ls=0.5,diis    15   -231.8843159368 -3.14D-03  2.09D-04  1.31D-03     5.8
                                                     2.27D-04  1.58D-03
 d= 0,ls=0.5,diis    16   -231.8863308872 -2.01D-03  1.53D-04  7.35D-04     6.2
                                                     1.88D-04  1.07D-03
 d= 0,ls=0.5,diis    17   -231.8876616298 -1.33D-03  1.09D-04  4.05D-04     6.5
                                                     1.67D-04  7.62D-04
 d= 0,ls=0.5,diis    18   -231.8886491584 -9.88D-04  9.39D-05  1.94D-04     6.9
                                                     1.52D-04  5.15D-04
 d= 0,ls=0.5,diis    19   -231.8893430077 -6.94D-04  7.97D-05  1.43D-04     7.3
                                                     1.40D-04  4.30D-04
 d= 0,ls=0.5,diis    20   -231.8898829778 -5.40D-04  4.42D-05  1.32D-04     7.7
                                                     1.27D-04  3.79D-04
 d= 0,ls=0.5,diis    21   -231.8903572525 -4.74D-04  1.06D-04  8.52D-05     8.0
                                                     1.26D-04  3.04D-04
 d= 0,ls=0.5,diis    22   -231.8906552044 -2.98D-04  6.18D-05  2.17D-04     8.4
                                                     1.10D-04  3.72D-04
 d= 0,ls=0.5,diis    23   -231.8909321848 -2.77D-04  2.98D-05  2.84D-04     8.8
                                                     1.01D-04  4.02D-04
 d= 0,ls=0.5,diis    24   -231.8912262739 -2.94D-04  2.59D-05  2.46D-04     9.2
                                                     9.59D-05  3.60D-04
 d= 0,ls=0.5,diis    25   -231.8914799619 -2.54D-04  4.87D-05  2.47D-04     9.6
                                                     9.40D-05  3.41D-04
 d= 0,ls=0.5,diis    26   -231.8916783763 -1.98D-04  3.58D-05  2.91D-04     9.9
                                                     8.77D-05  3.43D-04
 d= 0,ls=0.5,diis    27   -231.8918721104 -1.94D-04  1.29D-05  3.16D-04    10.3
                                                     8.25D-05  3.38D-04
 d= 0,ls=0.5,diis    28   -231.8920810069 -2.09D-04  1.48D-05  2.67D-04    10.7
                                                     7.87D-05  2.92D-04
 d= 0,ls=0.5,diis    29   -231.8922630688 -1.82D-04  2.17D-05  2.37D-04    11.1
                                                     7.58D-05  2.57D-04
 d= 0,ls=0.5,diis    30   -231.8924145377 -1.51D-04  9.33D-06  2.34D-04    11.4
                                                     7.14D-05  2.44D-04
 d= 0,ls=0.5,diis    31   -231.8925660430 -1.52D-04  2.49D-05  2.05D-04    11.8
                                                     6.97D-05  2.18D-04
 d= 0,ls=0.5,diis    32   -231.8926917165 -1.26D-04  3.53D-05  1.96D-04    12.2
                                                     6.81D-05  1.97D-04
 d= 0,ls=0.5,diis    33   -231.8927835013 -9.18D-05  1.85D-05  2.33D-04    12.6
                                                     6.30D-05  2.09D-04
 d= 0,ls=0.5,diis    34   -231.8928809312 -9.74D-05  9.09D-06  2.42D-04    13.0
                                                     5.99D-05  2.08D-04
 d= 0,ls=0.5,diis    35   -231.8929802799 -9.93D-05  1.53D-05  2.29D-04    13.3
                                                     5.83D-05  1.94D-04
 d= 0,ls=0.5,diis    36   -231.8930667691 -8.65D-05  8.55D-06  2.25D-04    13.7
                                                     5.55D-05  1.85D-04
 d= 0,ls=0.5,diis    37   -231.8931534224 -8.67D-05  2.01D-05  2.08D-04    14.1
                                                     5.46D-05  1.70D-04
 d= 0,ls=0.5,diis    38   -231.8932569519 -1.04D-04  9.97D-06  1.47D-04    14.5
                                                     5.20D-05  1.33D-04
 d= 0,ls=0.5,diis    39   -231.8933421960 -8.52D-05  6.54D-06  1.14D-04    14.8
                                                     4.90D-05  1.09D-04
 d= 0,ls=0.5,diis    40   -231.8934078314 -6.56D-05  8.06D-06  1.12D-04    15.2
                                                     4.68D-05  1.06D-04
 d= 0,ls=0.5,diis    41   -231.8934671579 -5.93D-05  7.44D-06  1.03D-04    15.6
                                                     4.50D-05  9.87D-05
 d= 0,ls=0.5,diis    42   -231.8935206414 -5.35D-05  6.47D-06  9.63D-05    16.0
                                                     4.32D-05  9.26D-05
 d= 0,ls=0.5,diis    43   -231.8935746554 -5.40D-05  9.36D-06  8.12D-05    16.4
                                                     4.20D-05  8.17D-05
 d= 0,ls=0.5,diis    44   -231.8936161256 -4.15D-05  1.22D-05  8.54D-05    16.7
                                                     4.10D-05  8.25D-05
 d= 0,ls=0.5,diis    45   -231.8936683781 -5.23D-05  7.06D-06  6.33D-05    17.1
                                                     3.96D-05  6.79D-05
 d= 0,ls=0.5,diis    46   -231.8937087440 -4.04D-05  7.16D-06  5.83D-05    17.5
                                                     3.77D-05  6.32D-05
 d= 0,ls=0.5,diis    47   -231.8937495440 -4.08D-05  1.13D-05  4.66D-05    17.9
                                                     3.72D-05  5.41D-05
 d= 0,ls=0.5,diis    48   -231.8937918888 -4.23D-05  5.45D-06  2.89D-05    18.2
                                                     3.49D-05  3.92D-05
 d= 0,ls=0.5,diis    49   -231.8938249663 -3.31D-05  7.89D-06  2.44D-05    18.6
                                                     3.37D-05  3.48D-05
 d= 0,ls=0.5,diis    50   -231.8938566648 -3.17D-05  5.59D-06  1.81D-05    19.0
                                                     3.20D-05  3.03D-05
 d= 0,ls=0.5,diis    51   -231.8938827812 -2.61D-05  4.89D-06  1.75D-05    19.4
                                                     3.13D-05  2.84D-05
 d= 0,ls=0.5,diis    52   -231.8939081351 -2.54D-05  4.53D-06  1.52D-05    19.8
                                                     2.99D-05  2.49D-05
 d= 0,ls=0.5,diis    53   -231.8939321198 -2.40D-05  2.54D-06  1.24D-05    20.1
                                                     2.90D-05  2.18D-05
 d= 0,ls=0.5,diis    54   -231.8939546214 -2.25D-05  6.46D-06  9.84D-06    20.5
                                                     2.84D-05  1.87D-05
 d= 0,ls=0.5,diis    55   -231.8939744136 -1.98D-05  6.36D-06  9.69D-06    20.9
                                                     2.74D-05  1.76D-05
 d= 0,ls=0.5,diis    56   -231.8939929932 -1.86D-05  3.18D-06  9.64D-06    21.2
                                                     2.64D-05  1.68D-05
 d= 0,ls=0.5,diis    57   -231.8940108218 -1.78D-05  5.58D-06  8.78D-06    21.6
                                                     2.60D-05  1.55D-05
 d= 0,ls=0.5,diis    58   -231.8940273455 -1.65D-05  1.24D-05  8.76D-06    22.0
                                                     2.64D-05  1.51D-05
 d= 0,ls=0.5,diis    59   -231.8940418826 -1.45D-05  5.23D-06  1.09D-05    22.4
                                                     2.51D-05  1.59D-05
 d= 0,ls=0.5,diis    60   -231.8940569107 -1.50D-05  2.27D-06  1.09D-05    22.7
                                                     2.43D-05  1.54D-05
 d= 0,ls=0.5,diis    61   -231.8940719214 -1.50D-05  3.81D-06  9.72D-06    23.1
                                                     2.39D-05  1.41D-05
 d= 0,ls=0.5,diis    62   -231.8940862554 -1.43D-05  4.74D-06  8.90D-06    23.5
                                                     2.34D-05  1.33D-05
 d= 0,ls=0.5,diis    63   -231.8941003076 -1.41D-05  5.24D-06  7.59D-06    23.9
                                                     2.31D-05  1.21D-05
 d= 0,ls=0.5,diis    64   -231.8941134618 -1.32D-05  2.01D-06  6.98D-06    24.3
                                                     2.25D-05  1.13D-05
 d= 0,ls=0.5,diis    65   -231.8941262191 -1.28D-05  1.62D-06  6.36D-06    24.6
                                                     2.20D-05  1.06D-05
 d= 0,ls=0.5,diis    66   -231.8941386057 -1.24D-05  3.42D-06  5.48D-06    25.0
                                                     2.16D-05  9.71D-06
 d= 0,ls=0.5,diis    67   -231.8941506093 -1.20D-05  4.95D-06  4.72D-06    25.4
                                                     2.14D-05  9.01D-06
 d= 0,ls=0.5,diis    68   -231.8941618882 -1.13D-05  1.66D-06  4.55D-06    25.8
                                                     2.09D-05  8.63D-06
 d= 0,ls=0.5,diis    69   -231.8941732964 -1.14D-05  2.62D-06  3.49D-06    26.1
                                                     2.07D-05  7.73D-06
 d= 0,ls=0.5,diis    70   -231.8941841595 -1.09D-05  2.09D-06  3.00D-06    26.5
                                                     2.03D-05  7.21D-06
 d= 0,ls=0.5,diis    71   -231.8941946206 -1.05D-05  1.79D-06  2.79D-06    26.9
                                                     2.00D-05  7.00D-06
 d= 0,ls=0.5,diis    72   -231.8942049044 -1.03D-05  5.21D-06  2.46D-06    27.3
                                                     2.00D-05  6.71D-06
 d= 0,ls=0.5,diis    73   -231.8942147922 -9.89D-06  1.38D-06  2.66D-06    27.6
                                                     1.96D-05  6.64D-06
 d= 0,ls=0.5,diis    74   -231.8942248529 -1.01D-05  8.01D-07  2.04D-06    28.0
                                                     1.94D-05  6.18D-06
 d= 0,ls=0.5,diis    75   -231.8942347464 -9.89D-06  2.59D-06  1.48D-06    28.4
                                                     1.93D-05  5.77D-06
 d= 0,ls=0.5,diis    76   -231.8942443352 -9.59D-06  1.60D-06  1.31D-06    28.8
                                                     1.90D-05  5.58D-06
 d= 0,ls=0.5,diis    77   -231.8942538760 -9.54D-06  1.16D-06  9.42D-07    29.2
                                                     1.89D-05  5.31D-06
 d= 0,ls=0.5,diis    78   -231.8942632890 -9.41D-06  1.57D-06  6.51D-07    29.5
                                                     1.88D-05  5.09D-06
 d= 0,ls=0.5,diis    79   -231.8942725780 -9.29D-06  1.46D-06  4.88D-07    29.9
                                                     1.87D-05  4.97D-06
 d= 0,ls=0.5,diis    80   -231.8942818172 -9.24D-06  7.74D-07  3.27D-07    30.3
                                                     1.86D-05  4.84D-06
 d= 0,ls=0.5,diis    81   -231.8942910240 -9.21D-06  2.25D-06  1.64D-07    30.7
                                                     1.85D-05  4.71D-06
 d= 0,ls=0.5,diis    82   -231.8943001456 -9.12D-06  1.52D-06  6.74D-08    31.0
                                                     1.85D-05  4.57D-06
 d= 0,ls=0.5,diis    83   -231.8943091283 -8.98D-06  2.26D-06  2.81D-07    31.4
                                                     1.85D-05  4.56D-06
 d= 0,ls=0.5,diis    84   -231.8943179128 -8.78D-06  1.07D-06  8.66D-07    31.8
                                                     1.84D-05  4.68D-06
 d= 0,ls=0.5,diis    85   -231.8943267977 -8.88D-06  5.09D-07  1.24D-06    32.2
                                                     1.85D-05  4.80D-06
 d= 0,ls=0.5,diis    86   -231.8943355145 -8.72D-06  3.55D-07  2.08D-06    32.5
                                                     1.85D-05  5.08D-06
 d= 0,ls=0.5,diis    87   -231.8943442248 -8.71D-06  7.81D-07  3.00D-06    32.9
                                                     1.87D-05  5.41D-06
 d= 0,ls=0.5,diis    88   -231.8943529378 -8.71D-06  7.75D-07  4.11D-06    33.3
                                                     1.88D-05  5.81D-06
 d= 0,ls=0.5,diis    89   -231.8943615182 -8.58D-06  1.44D-06  5.66D-06    33.7
                                                     1.89D-05  6.39D-06
 d= 0,ls=0.5,diis    90   -231.8943698295 -8.31D-06  1.24D-06  7.89D-06    34.1
                                                     1.91D-05  7.24D-06
 d= 0,ls=0.5,diis    91   -231.8943780605 -8.23D-06  4.23D-07  1.04D-05    34.4
                                                     1.92D-05  8.22D-06
 d= 0,ls=0.5,diis    92   -231.8943864632 -8.40D-06  9.31D-07  1.28D-05    34.8
                                                     1.93D-05  9.15D-06
 d= 0,ls=0.5,diis    93   -231.8943951299 -8.67D-06  4.31D-07  1.47D-05    35.2
                                                     1.94D-05  9.90D-06
 d= 0,ls=0.5,diis    94   -231.8944036257 -8.50D-06  5.57D-07  1.72D-05    35.6
                                                     1.96D-05  1.09D-05
 d= 0,ls=0.5,diis    95   -231.8944118306 -8.20D-06  4.38D-07  2.06D-05    35.9
                                                     1.98D-05  1.23D-05
 d= 0,ls=0.5,diis    96   -231.8944203040 -8.47D-06  3.30D-06  2.36D-05    36.3
                                                     2.00D-05  1.35D-05
 d= 0,ls=0.5,diis    97   -231.8944297887 -9.48D-06  1.28D-06  2.47D-05    36.7
                                                     2.02D-05  1.41D-05
 d= 0,ls=0.5,diis    98   -231.8944384189 -8.63D-06  1.14D-06  2.80D-05    37.1
                                                     2.04D-05  1.54D-05
 d= 0,ls=0.5,diis    99   -231.8944470522 -8.63D-06  5.28D-07  3.14D-05    37.4
                                                     2.06D-05  1.69D-05
 d= 0,ls=0.5,diis   100   -231.8944552555 -8.20D-06  1.90D-06  3.60D-05    37.8
                                                     2.07D-05  1.89D-05
 d= 0,ls=0.5,diis   101   -231.8944643267 -9.07D-06  3.63D-06  3.89D-05    38.2
                                                     2.10D-05  2.00D-05
 d= 0,ls=0.5,diis   102   -231.8944737166 -9.39D-06  4.91D-06  4.16D-05    38.6
                                                     2.15D-05  2.16D-05
 d= 0,ls=0.5,diis   103   -231.8944790741 -5.36D-06  3.81D-06  5.30D-05    39.0
                                                     2.18D-05  2.61D-05
 d= 0,ls=0.5,diis   104   -231.8944843513 -5.28D-06  3.48D-06  6.44D-05    39.3
                                                     2.19D-05  3.11D-05
 d= 0,ls=0.5,diis   105   -231.8944936565 -9.31D-06  4.55D-06  6.75D-05    39.7
                                                     2.24D-05  3.30D-05
 d= 0,ls=0.5,diis   106   -231.8945026982 -9.04D-06  4.15D-06  7.14D-05    40.1
                                                     2.26D-05  3.54D-05
 d= 0,ls=0.5,diis   107   -231.8945069782 -4.28D-06  9.91D-06  8.61D-05    40.5
                                                     2.36D-05  4.19D-05
 d= 0,ls=0.5,diis   108   -231.8945059234  1.05D-06  1.07D-05  1.11D-04    40.8
                                                     2.43D-05  5.24D-05
 d= 0,ls=0.5,diis   109   -231.8945020529  3.87D-06  3.37D-05  1.43D-04    41.2
                                                     2.75D-05  6.60D-05
 d= 0,ls=0.5,diis   110   -231.8945366349 -3.46D-05  2.14D-05  9.24D-05    41.6
                                                     2.44D-05  4.71D-05
 d= 0,ls=0.5,diis   111   -231.8945602116 -2.36D-05  1.49D-05  6.97D-05    42.0
                                                     2.33D-05  3.75D-05
 d= 0,ls=0.5,diis   112   -231.8945785588 -1.83D-05  5.33D-06  5.80D-05    42.3
                                                     2.25D-05  3.26D-05
 d= 0,ls=0.5,diis   113   -231.8945905423 -1.20D-05  5.30D-06  5.92D-05    42.7
                                                     2.26D-05  3.29D-05
 d= 0,ls=0.5,diis   114   -231.8946028953 -1.24D-05  2.98D-06  5.91D-05    43.1
                                                     2.27D-05  3.28D-05
 d= 0,ls=0.5,diis   115   -231.8946133520 -1.05D-05  1.65D-05  6.28D-05    43.5
                                                     2.55D-05  3.47D-05
 d= 0,ls=0.5,diis   116   -231.8946093000  4.05D-06  1.71D-05  9.77D-05    43.9
                                                     2.67D-05  4.96D-05
 d= 0,ls=0.5,diis   117   -231.8946000889  9.21D-06  5.02D-05  1.42D-04    44.2
                                                     3.37D-05  6.96D-05
 d= 0,ls=0.5,diis   118   -231.8946495699 -4.95D-05  3.55D-05  6.12D-05    44.6
                                                     2.78D-05  3.58D-05
 d= 0,ls=0.5,diis   119   -231.8946798503 -3.03D-05  2.31D-05  2.64D-05    45.0
                                                     2.40D-05  1.90D-05
 d= 0,ls=0.5,diis   120   -231.8946996203 -1.98D-05  3.35D-05  1.26D-05    45.4
                                                     2.64D-05  1.20D-05
 d= 0,ls=0.5,diis   121   -231.8947175524 -1.79D-05  1.96D-05  1.21D-06    45.7
                                                     2.22D-05  6.46D-06
 d= 0,ls=0.5,diis   122   -231.8947295825 -1.20D-05  3.42D-05  5.00D-07    46.1
                                                     2.60D-05  5.96D-06
 d= 0,ls=0.5,diis   123   -231.8947358687 -6.29D-06  2.23D-05  1.08D-05    46.5
                                                     2.21D-05  1.07D-05
 d= 0,ls=0.5,diis   124   -231.8947398055 -3.94D-06  1.19D-05  2.36D-05    46.9
                                                     1.97D-05  1.71D-05
 d= 0,ls=0.5,diis   125   -231.8947457129 -5.91D-06  1.98D-05  3.09D-05    47.3
                                                     2.17D-05  2.12D-05
 d= 0,ls=0.5,diis   126   -231.8947642013 -1.85D-05  2.48D-05  1.26D-05    47.6
                                                     2.37D-05  1.29D-05
 d= 0,ls=0.5,diis   127   -231.8947805219 -1.63D-05  6.70D-06  1.36D-06    48.0
                                                     2.01D-05  6.63D-06
 d= 0,ls=0.5,diis   128   -231.8947917815 -1.13D-05  4.14D-06  2.06D-07    48.4
                                                     1.97D-05  5.59D-06
 d= 0,ls=0.5,diis   129   -231.8948023431 -1.06D-05  1.99D-05  2.62D-08    48.8
                                                     2.12D-05  5.32D-06
 d= 0,ls=0.5,diis   130   -231.8948115093 -9.17D-06  8.01D-06  2.06D-06    49.1
                                                     1.92D-05  6.62D-06
 d= 0,ls=0.5,diis   131   -231.8948211020 -9.59D-06  6.60D-06  2.79D-06    49.5
                                                     1.90D-05  7.02D-06
 d= 0,ls=0.5,diis   132   -231.8948306603 -9.56D-06  1.11D-05  3.48D-06    49.9
                                                     1.92D-05  7.40D-06
 d= 0,ls=0.5,diis   133   -231.8948390379 -8.38D-06  1.32D-05  6.14D-06    50.3
                                                     1.91D-05  8.76D-06
 d= 0,ls=0.5,diis   134   -231.8948460377 -7.00D-06  1.41D-05  1.08D-05    50.6
                                                     1.88D-05  1.12D-05
 d= 0,ls=0.5,diis   135   -231.8948519387 -5.90D-06  4.82D-06  1.72D-05    51.0
                                                     1.76D-05  1.43D-05
 d= 0,ls=0.5,diis   136   -231.8948606224 -8.68D-06  3.20D-06  1.73D-05    51.4
                                                     1.74D-05  1.45D-05
 d= 0,ls=0.5,diis   137   -231.8948698085 -9.19D-06  9.39D-06  1.64D-05    51.8
                                                     1.85D-05  1.41D-05
 d= 0,ls=0.5,diis   138   -231.8948828278 -1.30D-05  1.39D-05  8.16D-06    52.2
                                                     1.99D-05  9.88D-06
 d= 0,ls=0.5,diis   139   -231.8948954117 -1.26D-05  3.21D-05  2.01D-06    52.5
                                                     2.32D-05  6.49D-06
 d= 0,ls=0.5,diis   140   -231.8948975880 -2.18D-06  1.76D-05  1.56D-05    52.9
                                                     1.85D-05  1.34D-05
 d= 0,ls=0.5,diis   141   -231.8949008016 -3.21D-06  7.20D-06  2.53D-05    53.3
                                                     1.65D-05  1.82D-05
 d= 0,ls=0.5,diis   142   -231.8949076433 -6.84D-06  2.41D-06  2.71D-05    53.7
                                                     1.62D-05  1.91D-05
 d= 0,ls=0.5,diis   143   -231.8949166911 -9.05D-06  5.67D-06  2.44D-05    54.0
                                                     1.61D-05  1.79D-05
 d= 0,ls=0.5,diis   144   -231.8949235480 -6.86D-06  3.11D-06  2.65D-05    54.4
                                                     1.59D-05  1.89D-05
 d= 0,ls=0.5,diis   145   -231.8949315380 -7.99D-06  4.76D-06  2.60D-05    54.8
                                                     1.58D-05  1.88D-05
 d= 0,ls=0.5,diis   146   -231.8949388537 -7.32D-06  1.50D-05  2.66D-05    55.2
                                                     1.68D-05  1.88D-05
 d= 0,ls=0.5,diis   147   -231.8949403805 -1.53D-06  9.98D-06  3.84D-05    55.5
                                                     1.65D-05  2.43D-05
 d= 0,ls=0.5,diis   148   -231.8949539020 -1.35D-05  5.13D-06  2.51D-05    55.9
                                                     1.54D-05  1.81D-05
 d= 0,ls=0.5,diis   149   -231.8949604698 -6.57D-06  3.12D-06  2.70D-05    56.3
                                                     1.52D-05  1.88D-05
 d= 0,ls=0.5,diis   150   -231.8949679584 -7.49D-06  1.36D-05  2.64D-05    56.7
                                                     1.58D-05  1.85D-05
 d= 0,ls=0.5,diis   151   -231.8949697314 -1.77D-06  1.69D-05  3.71D-05    57.1
                                                     1.83D-05  2.35D-05
 d= 0,ls=0.5,diis   152   -231.8949859993 -1.63D-05  2.20D-06  1.81D-05    57.4
                                                     1.56D-05  1.46D-05
 d= 0,ls=0.5,diis   153   -231.8949945606 -8.56D-06  6.12D-06  1.61D-05    57.8
                                                     1.54D-05  1.33D-05
 d= 0,ls=0.5,diis   154   -231.8950007796 -6.22D-06  2.20D-05  1.79D-05    58.2
                                                     1.78D-05  1.40D-05
 d= 0,ls=0.5,diis   155   -231.8949989299  1.85D-06  1.92D-05  3.52D-05    58.6
                                                     1.62D-05  2.22D-05
 d= 0,ls=0.5,diis   156   -231.8949959493  2.98D-06  9.01D-06  5.25D-05    58.9
                                                     1.33D-05  3.03D-05
 d= 0,ls=0.5,diis   157   -231.8949976267 -1.68D-06  4.71D-06  5.94D-05    59.3
                                                     1.26D-05  3.43D-05
 d= 0,ls=0.5,diis   158   -231.8950019173 -4.29D-06  1.11D-05  6.11D-05    59.7
                                                     1.44D-05  3.56D-05
 d= 0,ls=0.5,diis   159   -231.8950157978 -1.39D-05  1.56D-05  4.39D-05    60.1
                                                     1.64D-05  2.79D-05
 d= 0,ls=0.5,diis   160   -231.8950314263 -1.56D-05  2.71D-06  2.51D-05    60.5
                                                     1.40D-05  1.86D-05
 d= 0,ls=0.5,diis   161   -231.8950397599 -8.33D-06  2.03D-05  2.15D-05    60.8
                                                     1.93D-05  1.65D-05
 d= 0,ls=0.5,diis   162   -231.8950544227 -1.47D-05  4.71D-06  6.29D-06    61.2
                                                     1.50D-05  8.32D-06
 d= 0,ls=0.5,diis   163   -231.8950611855 -6.76D-06  1.03D-05  6.41D-06    61.6
                                                     1.49D-05  8.21D-06
 d= 0,ls=0.5,diis   164   -231.8950659053 -4.72D-06  1.72D-05  9.43D-06    62.0
                                                     1.57D-05  9.63D-06
 d= 0,ls=0.5,diis   165   -231.8950672545 -1.35D-06  8.85D-06  1.81D-05    62.3
                                                     1.34D-05  1.40D-05
 d= 0,ls=0.5,diis   166   -231.8950705529 -3.30D-06  3.58D-06  2.20D-05    62.7
                                                     1.27D-05  1.62D-05
 d= 0,ls=0.5,diis   167   -231.8950758580 -5.31D-06  1.63D-05  2.17D-05    63.1
                                                     1.43D-05  1.62D-05
 d= 0,ls=0.5,diis   168   -231.8950742021  1.66D-06  6.18D-06  3.50D-05    63.5
                                                     1.18D-05  2.30D-05
 d= 0,ls=0.5,diis   169   -231.8950772436 -3.04D-06  2.66D-06  3.76D-05    63.8
                                                     1.15D-05  2.47D-05
 d= 0,ls=0.5,diis   170   -231.8950820600 -4.82D-06  1.32D-06  3.68D-05    64.2
                                                     1.15D-05  2.45D-05
 d= 0,ls=0.5,diis   171   -231.8950881876 -6.13D-06  4.55D-05  3.36D-05    64.6
                                                     2.98D-05  2.31D-05
 d= 0,ls=0.5,diis   172   -231.8951106546 -2.25D-05  2.29D-05  2.11D-06    65.0
                                                     1.74D-05  5.34D-06
 d= 0,ls=0.5,diis   173   -231.8951120175 -1.36D-06  5.24D-06  1.04D-05    65.3
                                                     1.30D-05  9.93D-06
 d= 0,ls=0.5,diis   174   -231.8951171103 -5.09D-06  3.97D-05  1.02D-05    65.7
                                                     2.34D-05  9.54D-06
 d= 0,ls=0.5,diis   175   -231.8951055007  1.16D-05  5.75D-05  4.24D-05    66.1
                                                     3.14D-05  2.49D-05
 d= 0,ls=0.5,diis   176   -231.8950648586  4.06D-05  4.62D-05  1.32D-04    66.5
                                                     2.71D-05  6.73D-05
 d= 0,ls=0.5,diis   177   -231.8951058924 -4.10D-05  1.33D-05  4.89D-05    66.9
                                                     1.33D-05  3.07D-05
 d= 0,ls=0.5,diis   178   -231.8951184109 -1.25D-05  3.02D-05  3.36D-05    67.2
                                                     2.17D-05  2.26D-05
 d= 0,ls=0.5,diis   179   -231.8951368091 -1.84D-05  5.53D-06  8.20D-06    67.6
                                                     1.35D-05  8.77D-06
 d= 0,ls=0.5,diis   180   -231.8951436304 -6.82D-06  3.74D-06  5.70D-06    68.0
                                                     1.34D-05  6.78D-06
 d= 0,ls=0.5,diis   181   -231.8951499720 -6.34D-06  1.27D-05  3.49D-06    68.4
                                                     1.35D-05  5.37D-06
 d= 0,ls=0.5,diis   182   -231.8951527753 -2.80D-06  4.20D-06  7.33D-06    68.7
                                                     1.21D-05  7.08D-06
 d= 0,ls=0.5,diis   183   -231.8951571589 -4.38D-06  5.25D-06  7.37D-06    69.1
                                                     1.18D-05  7.02D-06
 d= 0,ls=0.5,diis   184   -231.8951609323 -3.77D-06  1.14D-05  8.37D-06    69.5
                                                     1.23D-05  7.57D-06
 d= 0,ls=0.5,diis   185   -231.8951623183 -1.39D-06  3.34D-06  1.36D-05    69.9
                                                     1.09D-05  1.03D-05
 d= 0,ls=0.5,diis   186   -231.8951661772 -3.86D-06  1.51D-05  1.34D-05    70.2
                                                     1.25D-05  1.03D-05
 d= 0,ls=0.5,diis   187   -231.8951649820  1.20D-06  1.11D-05  2.29D-05    70.6
                                                     1.07D-05  1.50D-05
 d= 0,ls=0.5,diis   188   -231.8951643954  5.87D-07  4.04D-06  3.02D-05    71.0
                                                     9.37D-06  1.86D-05
 d= 0,ls=0.5,diis   189   -231.8951668662 -2.47D-06  2.25D-05  3.09D-05    71.4
                                                     1.68D-05  1.92D-05
 d= 0,ls=0.5,diis   190   -231.8951804601 -1.36D-05  3.98D-06  1.07D-05    71.8
                                                     1.13D-05  9.28D-06
 d= 0,ls=0.5,diis   191   -231.8951859254 -5.47D-06  1.76D-05  8.08D-06    72.1
                                                     1.31D-05  7.61D-06
 d= 0,ls=0.5,diis   192   -231.8951844878  1.44D-06  1.06D-05  1.82D-05    72.5
                                                     1.03D-05  1.27D-05
 d= 0,ls=0.5,diis   193   -231.8951848883 -4.00D-07  3.31D-06  2.32D-05    72.9
                                                     9.13D-06  1.51D-05
 d= 0,ls=0.5,diis   194   -231.8951881018 -3.21D-06  3.57D-06  2.23D-05    73.3
                                                     8.95D-06  1.46D-05
 d= 0,ls=0.5,diis   195   -231.8951905619 -2.46D-06  2.24D-05  2.32D-05    73.6
                                                     1.66D-05  1.51D-05
 d= 0,ls=0.5,diis   196   -231.8952023661 -1.18D-05  5.83D-06  6.50D-06    74.0
                                                     1.15D-05  6.63D-06
 d= 0,ls=0.5,diis   197   -231.8952076693 -5.30D-06  1.60D-05  3.53D-06    74.4
                                                     1.27D-05  4.68D-06
 d= 0,ls=0.5,diis   198   -231.8952079326 -2.63D-07  1.14D-05  9.52D-06    74.8
                                                     1.26D-05  7.58D-06
 d= 0,ls=0.5,diis   199   -231.8952144422 -6.51D-06  2.64D-06  3.08D-06    75.1
                                                     1.09D-05  4.23D-06
 d= 0,ls=0.5,diis   200   -231.8952185839 -4.14D-06  1.04D-05  1.80D-06    75.5
                                                     1.12D-05  3.39D-06
 d= 0,ls=0.5,diis   201   -231.8952203694 -1.79D-06  1.08D-05  4.36D-06    75.9
                                                     1.05D-05  4.87D-06
 d= 0,ls=0.5,diis   202   -231.8952212976 -9.28D-07  2.03D-06  8.03D-06    76.3
                                                     9.25D-06  6.92D-06
 d= 0,ls=0.5,diis   203   -231.8952245701 -3.27D-06  1.37D-05  6.81D-06    76.6
                                                     1.08D-05  6.28D-06
 d= 0,ls=0.5,diis   204   -231.8952237773  7.93D-07  1.01D-05  1.34D-05    77.0
                                                     9.08D-06  9.67D-06
 d= 0,ls=0.5,diis   205   -231.8952232069  5.70D-07  6.86D-06  1.87D-05    77.4
                                                     9.26D-06  1.25D-05
 d= 0,ls=0.5,diis   206   -231.8952283924 -5.19D-06  6.31D-06  1.27D-05    77.8
                                                     8.29D-06  9.72D-06
 d= 0,ls=0.5,diis   207   -231.8952292598 -8.67D-07  3.19D-05  1.54D-05    78.1
                                                     2.14D-05  1.08D-05
 d= 0,ls=0.5,diis   208   -231.8952399998 -1.07D-05  4.46D-05  7.28D-07    78.5
                                                     2.52D-05  2.45D-06
 d= 0,ls=0.5,diis   209   -231.8952310662  8.93D-06  1.04D-05  2.34D-05    78.9
                                                     8.23D-06  1.41D-05
 d= 0,ls=0.5,diis   210   -231.8952300080  1.06D-06  3.37D-06  2.79D-05    79.3
                                                     6.86D-06  1.64D-05
 d= 0,ls=0.5,diis   211   -231.8952318255 -1.82D-06  2.87D-05  2.72D-05    79.7
                                                     1.88D-05  1.62D-05
 d= 0,ls=0.5,diis   212   -231.8952448638 -1.30D-05  5.40D-06  5.88D-06    80.0
                                                     8.77D-06  5.44D-06
 d= 0,ls=0.5,diis   213   -231.8952468549 -1.99D-06  1.91D-06  7.16D-06    80.4
                                                     8.32D-06  5.72D-06
 d= 0,ls=0.5,diis   214   -231.8952493444 -2.49D-06  2.20D-06  6.79D-06    80.8
                                                     8.14D-06  5.43D-06
 d= 0,ls=0.5,diis   215   -231.8952516213 -2.28D-06  6.20D-06  6.65D-06    81.2
                                                     9.33D-06  5.21D-06
 d= 0,ls=0.5,diis   216   -231.8952554614 -3.84D-06  3.62D-06  3.57D-06    81.5
                                                     8.42D-06  3.70D-06
 d= 0,ls=0.5,diis   217   -231.8952574232 -1.96D-06  3.68D-06  4.00D-06    81.9
                                                     8.14D-06  3.79D-06
 d= 0,ls=0.5,diis   218   -231.8952592410 -1.82D-06  2.09D-06  4.54D-06    82.3
                                                     8.41D-06  4.01D-06
 d= 0,ls=0.5,diis   219   -231.8952620760 -2.83D-06  1.10D-05  3.09D-06    82.7
                                                     9.23D-06  3.25D-06
 d= 0,ls=0.5,diis   220   -231.8952621736 -9.76D-08  1.02D-05  6.68D-06    83.1
                                                     8.36D-06  4.98D-06
 d= 0,ls=0.5,diis   221   -231.8952616703  5.03D-07  2.53D-06  1.09D-05    83.4
                                                     6.68D-06  7.06D-06
 d= 0,ls=0.5,diis   222   -231.8952632844 -1.61D-06  6.57D-06  1.05D-05    83.8
                                                     6.93D-06  7.03D-06
 d= 0,ls=0.5,diis   223   -231.8952631921  9.23D-08  3.80D-06  1.37D-05    84.2
                                                     6.20D-06  8.63D-06
 d= 0,ls=0.5,diis   224   -231.8952639232 -7.31D-07  1.27D-06  1.49D-05    84.6
                                                     6.16D-06  9.24D-06
 d= 0,ls=0.5,diis   225   -231.8952660445 -2.12D-06  3.11D-06  1.34D-05    84.9
                                                     6.09D-06  8.52D-06
 d= 0,ls=0.5,diis   226   -231.8952669019 -8.57D-07  1.41D-05  1.46D-05    85.3
                                                     1.08D-05  9.10D-06
 d= 0,ls=0.5,diis   227   -231.8952729100 -6.01D-06  2.94D-05  5.64D-06    85.7
                                                     1.64D-05  4.71D-06
 d= 0,ls=0.5,diis   228   -231.8952646319  8.28D-06  2.85D-05  2.55D-05    86.1
                                                     1.81D-05  1.43D-05
 d= 0,ls=0.5,diis   229   -231.8952762470 -1.16D-05  9.99D-06  4.44D-06    86.4
                                                     1.00D-05  3.95D-06
 d= 0,ls=0.5,diis   230   -231.8952799653 -3.72D-06  6.80D-06  1.31D-06    86.8
                                                     8.02D-06  2.01D-06
 d= 0,ls=0.5,diis   231   -231.8952811478 -1.18D-06  1.03D-05  2.39D-06    87.2
                                                     8.27D-06  2.46D-06
 d= 0,ls=0.5,diis   232   -231.8952811542 -6.43D-09  4.89D-06  5.39D-06    87.6
                                                     6.60D-06  3.96D-06
 d= 0,ls=0.5,diis   233   -231.8952818574 -7.03D-07  5.68D-06  6.58D-06    87.9
                                                     7.35D-06  4.65D-06
 d= 0,ls=0.5,diis   234   -231.8952846443 -2.79D-06  1.79D-06  3.64D-06    88.3
                                                     6.81D-06  3.27D-06
 d= 0,ls=0.5,diis   235   -231.8952865556 -1.91D-06  5.96D-07  2.78D-06    88.7
                                                     6.69D-06  2.84D-06
 d= 0,ls=0.5,diis   236   -231.8952882336 -1.68D-06  2.00D-06  2.29D-06    89.1
                                                     6.56D-06  2.53D-06
 d= 0,ls=0.5,diis   237   -231.8952896043 -1.37D-06  1.76D-06  2.32D-06    89.4
                                                     6.43D-06  2.49D-06
 d= 0,ls=0.5,diis   238   -231.8952909384 -1.33D-06  4.47D-06  2.30D-06    89.8
                                                     6.42D-06  2.46D-06
 d= 0,ls=0.5,diis   239   -231.8952917732 -8.35D-07  1.85D-06  3.10D-06    90.2
                                                     6.05D-06  2.85D-06
 d= 0,ls=0.5,diis   240   -231.8952930053 -1.23D-06  9.80D-07  3.03D-06    90.6
                                                     6.00D-06  2.78D-06
 d= 0,ls=0.5,diis   241   -231.8952943241 -1.32D-06  4.57D-06  2.76D-06    91.0
                                                     6.02D-06  2.61D-06
 d= 0,ls=0.5,diis   242   -231.8952949167 -5.93D-07  7.84D-06  3.83D-06    91.3
                                                     6.42D-06  3.20D-06
 d= 0,ls=0.5,diis   243   -231.8952946479  2.69D-07  6.44D-06  6.31D-06    91.7
                                                     5.60D-06  4.41D-06
 d= 0,ls=0.5,diis   244   -231.8952943324  3.15D-07  4.10D-06  8.63D-06    92.1
                                                     5.70D-06  5.58D-06
 d= 0,ls=0.5,diis   245   -231.8952965015 -2.17D-06  5.32D-06  6.01D-06    92.5
                                                     6.38D-06  4.34D-06
 d= 0,ls=0.5,diis   246   -231.8952988275 -2.33D-06  9.71D-07  3.45D-06    92.8
                                                     5.57D-06  2.98D-06
 d= 0,ls=0.5,diis   247   -231.8953000860 -1.26D-06  4.83D-06  3.13D-06    93.2
                                                     5.63D-06  2.69D-06
 d= 0,ls=0.5,diis   248   -231.8953004651 -3.79D-07  2.73D-06  4.39D-06    93.6
                                                     5.15D-06  3.27D-06
 d= 0,ls=0.5,diis   249   -231.8953011695 -7.04D-07  5.66D-06  4.80D-06    94.0
                                                     6.69D-06  3.43D-06
 d= 0,ls=0.5,diis   250   -231.8953033855 -2.22D-06  9.68D-07  2.33D-06    94.3
                                                     5.63D-06  2.07D-06
 d= 0,ls=0.5,diis   251   -231.8953046002 -1.21D-06  8.96D-07  1.96D-06    94.7
                                                     5.57D-06  1.83D-06
 d= 0,ls=0.5,diis   252   -231.8953057055 -1.11D-06  6.43D-06  1.75D-06    95.1
                                                     6.05D-06  1.69D-06
 d= 0,ls=0.5,diis   253   -231.8953058853 -1.80D-07  6.32D-06  3.11D-06    95.5
                                                     6.82D-06  2.36D-06
 d= 0,ls=0.5,diis   254   -231.8953078189 -1.93D-06  8.41D-07  1.07D-06    95.9
                                                     5.56D-06  1.31D-06
 d= 0,ls=0.5,diis   255   -231.8953088581 -1.04D-06  1.40D-06  9.26D-07    96.2
                                                     5.44D-06  1.18D-06
 d= 0,ls=0.5,diis   256   -231.8953097768 -9.19D-07  1.61D-06  9.12D-07    96.6
                                                     5.37D-06  1.13D-06
 d= 0,ls=0.5,diis   257   -231.8953106529 -8.76D-07  3.21D-06  8.90D-07    97.0
                                                     5.29D-06  1.11D-06
 d= 0,ls=0.5,diis   258   -231.8953112911 -6.38D-07  5.16D-06  1.26D-06    97.4
                                                     5.34D-06  1.31D-06
 d= 0,ls=0.5,diis   259   -231.8953115770 -2.86D-07  2.40D-06  2.17D-06    97.7
                                                     4.67D-06  1.78D-06
 d= 0,ls=0.5,diis   260   -231.8953121484 -5.71D-07  2.79D-06  2.40D-06    98.1
                                                     4.56D-06  1.92D-06
 d= 0,ls=0.5,diis   261   -231.8953126054 -4.57D-07  3.63D-06  2.80D-06    98.5
                                                     4.50D-06  2.11D-06
 d= 0,ls=0.5,diis   262   -231.8953128506 -2.45D-07  2.48D-06  3.57D-06    98.9
                                                     4.19D-06  2.48D-06
 d= 0,ls=0.5,diis   263   -231.8953132365 -3.86D-07  3.31D-06  3.94D-06    99.2
                                                     4.14D-06  2.68D-06
 d= 0,ls=0.5,diis   264   -231.8953133819 -1.45D-07  9.69D-06  4.81D-06    99.6
                                                     7.38D-06  3.10D-06
 d= 0,ls=0.5,diis   265   -231.8953157438 -2.36D-06  9.33D-06  1.42D-06   100.0
                                                     7.93D-06  1.40D-06
 d= 0,ls=0.5,diis   266   -231.8953173223 -1.58D-06  3.85D-06  1.15D-07   100.4
                                                     5.43D-06  5.37D-07
 d= 0,ls=0.5,diis   267   -231.8953180241 -7.02D-07  1.45D-05  2.02D-07   100.7
                                                     8.51D-06  5.60D-07
 d= 0,ls=0.5,diis   268   -231.8953173516  6.72D-07  1.14D-05  2.80D-06   101.1
                                                     6.83D-06  1.86D-06
 d= 0,ls=0.5,diis   269   -231.8953159216  1.43D-06  3.95D-06  6.52D-06   101.5
                                                     4.29D-06  3.74D-06
 d= 0,ls=0.5,diis   270   -231.8953172330 -1.31D-06  3.49D-06  4.54D-06   101.9
                                                     4.34D-06  2.90D-06
 d= 0,ls=0.5,diis   271   -231.8953184699 -1.24D-06  3.46D-06  3.05D-06   102.3
                                                     4.63D-06  2.16D-06
 d= 0,ls=0.5,diis   272   -231.8953196617 -1.19D-06  7.50D-06  1.81D-06   102.6
                                                     6.46D-06  1.49D-06
 d= 0,ls=0.5,diis   273   -231.8953210862 -1.42D-06  7.55D-06  3.40D-07   103.0
                                                     5.58D-06  6.51D-07
 d= 0,ls=0.5,diis   274   -231.8953211215 -3.53D-08  5.21D-06  1.36D-06   103.4
                                                     4.40D-06  1.16D-06
 d= 0,ls=0.5,diis   275   -231.8953211045  1.70D-08  2.69D-06  2.31D-06   103.8
                                                     3.65D-06  1.65D-06
 d= 0,ls=0.5,diis   276   -231.8953213169 -2.12D-07  1.32D-06  2.71D-06   104.1
                                                     3.66D-06  1.88D-06
 d= 0,ls=0.5,diis   277   -231.8953220315 -7.15D-07  2.26D-06  2.12D-06   104.5
                                                     4.05D-06  1.61D-06
 d= 0,ls=0.5,diis   278   -231.8953228818 -8.50D-07  2.40D-06  1.38D-06   104.9
                                                     3.73D-06  1.22D-06
 d= 0,ls=0.5,diis   279   -231.8953231674 -2.86D-07  7.51D-07  1.73D-06   105.3
                                                     3.51D-06  1.39D-06
 d= 0,ls=0.5,diis   280   -231.8953236397 -4.72D-07  7.04D-07  1.63D-06   105.7
                                                     3.48D-06  1.33D-06
 d= 0,ls=0.5,diis   281   -231.8953240979 -4.58D-07  2.59D-06  1.54D-06   106.0
                                                     4.09D-06  1.29D-06
 d= 0,ls=0.5,diis   282   -231.8953249123 -8.14D-07  8.22D-07  8.15D-07   106.4
                                                     3.70D-06  8.56D-07
 d= 0,ls=0.5,diis   283   -231.8953253688 -4.56D-07  5.37D-07  8.16D-07   106.8
                                                     3.76D-06  8.56D-07
 d= 0,ls=0.5,diis   284   -231.8953259232 -5.54D-07  4.37D-06  5.87D-07   107.2
                                                     4.01D-06  6.89D-07
 d= 0,ls=0.5,diis   285   -231.8953260145 -9.14D-08  7.57D-07  1.21D-06   107.5
                                                     3.41D-06  1.02D-06
 d= 0,ls=0.5,diis   286   -231.8953264745 -4.60D-07  3.21D-06  1.03D-06   107.9
                                                     3.52D-06  9.41D-07
 d= 0,ls=0.5,diis   287   -231.8953265914 -1.17D-07  1.88D-06  1.51D-06   108.3
                                                     3.16D-06  1.17D-06
 d= 0,ls=0.5,diis   288   -231.8953268238 -2.32D-07  4.26D-06  1.70D-06   108.7
                                                     4.40D-06  1.26D-06
 d= 0,ls=0.5,diis   289   -231.8953277101 -8.86D-07  8.84D-07  6.85D-07   109.1
                                                     3.58D-06  6.99D-07
 d= 0,ls=0.5,diis   290   -231.8953282150 -5.05D-07  4.02D-06  4.71D-07   109.4
                                                     3.73D-06  5.54D-07
 d= 0,ls=0.5,diis   291   -231.8953283173 -1.02D-07  1.62D-06  9.64D-07   109.8
                                                     3.15D-06  7.93D-07
 d= 0,ls=0.5,diis   292   -231.8953285833 -2.66D-07  1.11D-06  1.06D-06   110.2
                                                     3.07D-06  8.44D-07
 d= 0,ls=0.5,diis   293   -231.8953288802 -2.97D-07  6.24D-07  1.10D-06   110.6
                                                     3.16D-06  8.62D-07
 d= 0,ls=0.5,diis   294   -231.8953293156 -4.35D-07  2.48D-07  8.57D-07   110.9
                                                     3.16D-06  7.27D-07
 d= 0,ls=0.5,diis   295   -231.8953297145 -3.99D-07  2.48D-06  7.04D-07   111.3
                                                     3.15D-06  6.34D-07
 d= 0,ls=0.5,diis   296   -231.8953298807 -1.66D-07  2.91D-06  9.67D-07   111.7
                                                     3.06D-06  7.49D-07
 d= 0,ls=0.5,diis   297   -231.8953299406 -6.00D-08  1.21D-06  1.38D-06   112.1
                                                     2.72D-06  9.58D-07
 d= 0,ls=0.5,diis   298   -231.8953301599 -2.19D-07  3.84D-07  1.45D-06   112.5
                                                     2.72D-06  9.99D-07
 d= 0,ls=0.5,diis   299   -231.8953304965 -3.37D-07  2.59D-06  1.27D-06   112.8
                                                     2.81D-06  9.14D-07
 d= 0,ls=0.5,diis   300   -231.8953305268 -3.03D-08  1.65D-06  1.71D-06   113.2
                                                     2.52D-06  1.13D-06
 d= 0,ls=0.5,diis   301   -231.8953306422 -1.15D-07  3.06D-06  1.92D-06   113.6
                                                     2.68D-06  1.24D-06
 d= 0,ls=0.5,diis   302   -231.8953305231  1.19D-07  1.29D-06  2.56D-06   114.0
                                                     2.22D-06  1.55D-06
 d= 0,ls=0.5,diis   303   -231.8953306266 -1.03D-07  1.62D-06  2.72D-06   114.3
                                                     2.18D-06  1.65D-06
 d= 0,ls=0.5,diis   304   -231.8953306434 -1.69D-08  1.01D-05  3.04D-06   114.7
                                                     6.57D-06  1.81D-06
 d= 0,ls=0.5,diis   305   -231.8953321408 -1.50D-06  3.12D-06  5.68D-07   115.1
                                                     3.67D-06  5.64D-07
 d= 0,ls=0.5,diis   306   -231.8953326460 -5.05D-07  6.36D-06  2.00D-07   115.5
                                                     4.22D-06  3.18D-07
 d= 0,ls=0.5,diis   307   -231.8953325242  1.22D-07  2.97D-06  9.17D-07   115.8
                                                     2.74D-06  6.82D-07
 d= 0,ls=0.5,diis   308   -231.8953325308 -6.66D-09  8.08D-07  1.27D-06   116.2
                                                     2.46D-06  8.70D-07
 d= 0,ls=0.5,diis   309   -231.8953328373 -3.06D-07  9.23D-07  1.03D-06   116.6
                                                     2.57D-06  7.69D-07
 d= 0,ls=0.5,diis   310   -231.8953331722 -3.35D-07  9.38D-07  7.86D-07   117.0
                                                     2.64D-06  6.46D-07
 d= 0,ls=0.5,diis   311   -231.8953335069 -3.35D-07  5.88D-07  5.55D-07   117.3
                                                     2.64D-06  5.14D-07
 d= 0,ls=0.5,diis   312   -231.8953338015 -2.95D-07  2.30D-06  4.07D-07   117.7
                                                     2.64D-06  4.21D-07
 d= 0,ls=0.5,diis   313   -231.8953338924 -9.09D-08  4.14D-06  6.29D-07   118.1
                                                     3.03D-06  5.32D-07
 d= 0,ls=0.5,diis   314   -231.8953337431  1.49D-07  1.83D-06  1.25D-06   118.5
                                                     2.14D-06  8.70D-07
 d= 0,ls=0.5,diis   315   -231.8953337665 -2.34D-08  5.78D-07  1.47D-06   118.9
                                                     2.04D-06  1.00D-06
 d= 0,ls=0.5,diis   316   -231.8953340039 -2.37D-07  2.18D-06  1.28D-06   119.2
                                                     2.12D-06  9.21D-07
 d= 0,ls=0.5,diis   317   -231.8953339567  4.72D-08  9.45D-07  1.66D-06   119.6
                                                     2.06D-06  1.11D-06
 d= 0,ls=0.5,diis   318   -231.8953342678 -3.11D-07  1.20D-06  1.31D-06   120.0
                                                     1.91D-06  9.13D-07
 d= 0,ls=0.5,diis   319   -231.8953343315 -6.38D-08  1.09D-06  1.48D-06   120.4
                                                     1.87D-06  1.00D-06
 d= 0,ls=0.5,diis   320   -231.8953343995 -6.80D-08  6.01D-07  1.61D-06   120.7
                                                     1.84D-06  1.07D-06
 d= 0,ls=0.5,diis   321   -231.8953345677 -1.68D-07  9.88D-06  1.53D-06   121.1
                                                     6.35D-06  1.02D-06
 d= 0,ls=0.5,diis   322   -231.8953355113 -9.44D-07  2.43D-06  1.04D-07   121.5
                                                     2.77D-06  2.16D-07
 d= 0,ls=0.5,diis   323   -231.8953356685 -1.57D-07  4.00D-06  1.79D-07   121.9
                                                     2.90D-06  2.38D-07
 d= 0,ls=0.5,diis   324   -231.8953356694 -9.17D-10  7.99D-07  4.96D-07   122.3
                                                     2.12D-06  3.82D-07
 d= 0,ls=0.5,diis   325   -231.8953358214 -1.52D-07  6.48D-07  4.78D-07   122.6
                                                     2.15D-06  3.72D-07
 d= 0,ls=0.5,diis   326   -231.8953359956 -1.74D-07  1.95D-06  4.21D-07   123.0
                                                     2.59D-06  3.49D-07
 d= 0,ls=0.5,diis   327   -231.8953362756 -2.80D-07  7.23D-07  1.77D-07   123.4
                                                     2.24D-06  2.15D-07
 d= 0,ls=0.5,diis   328   -231.8953364235 -1.48D-07  3.47D-06  1.91D-07   123.8
                                                     2.64D-06  2.23D-07
 d= 0,ls=0.5,diis   329   -231.8953363963  2.72D-08  1.85D-06  5.10D-07   124.2
                                                     2.00D-06  3.91D-07
 d= 0,ls=0.5,diis   330   -231.8953364248 -2.86D-08  1.41D-06  6.77D-07   124.5
                                                     1.83D-06  4.82D-07
 d= 0,ls=0.5,diis   331   -231.8953364658 -4.09D-08  7.83D-07  8.06D-07   124.9
                                                     1.70D-06  5.50D-07
 d= 0,ls=0.5,diis   332   -231.8953365497 -8.40D-08  3.93D-07  8.42D-07   125.3
                                                     1.74D-06  5.71D-07
 d= 0,ls=0.5,diis   333   -231.8953367046 -1.55D-07  5.09D-06  7.40D-07   125.7
                                                     3.78D-06  5.21D-07
 d= 0,ls=0.5,diis   334   -231.8953371621 -4.58D-07  1.00D-06  1.15D-07   126.0
                                                     2.24D-06  1.70D-07
 d= 0,ls=0.5,diis   335   -231.8953373106 -1.48D-07  4.27D-06  1.01D-07   126.4
                                                     2.86D-06  1.50D-07
 d= 0,ls=0.5,diis   336   -231.8953372529  5.77D-08  2.49D-06  4.42D-07   126.8
                                                     2.02D-06  3.25D-07
 d= 0,ls=0.5,diis   337   -231.8953372204  3.25D-08  2.10D-06  6.81D-07   127.2
                                                     2.23D-06  4.52D-07
 d= 0,ls=0.5,diis   338   -231.8953374843 -2.64D-07  4.15D-07  3.47D-07   127.6
                                                     1.84D-06  2.86D-07
 d= 0,ls=0.5,diis   339   -231.8953376304 -1.46D-07  4.81D-06  2.78D-07   127.9
                                                     2.94D-06  2.45D-07
 d= 0,ls=0.5,diis   340   -231.8953374183  2.12D-07  2.16D-06  8.91D-07   128.3
                                                     1.69D-06  5.51D-07
 d= 0,ls=0.5,diis   341   -231.8953373365  8.19D-08  1.95D-06  1.17D-06   128.7
                                                     1.86D-06  7.09D-07
 d= 0,ls=0.5,diis   342   -231.8953376037 -2.67D-07  7.82D-07  7.59D-07   129.1
                                                     1.59D-06  5.23D-07
 d= 0,ls=0.5,diis   343   -231.8953377674 -1.64D-07  7.33D-07  6.06D-07   129.4
                                                     1.64D-06  4.45D-07
 d= 0,ls=0.5,diis   344   -231.8953379335 -1.66D-07  1.21D-06  4.57D-07   129.8
                                                     1.92D-06  3.57D-07
 d= 0,ls=0.5,diis   345   -231.8953381251 -1.92D-07  2.17D-06  2.80D-07   130.2
                                                     1.83D-06  2.46D-07
 d= 0,ls=0.5,diis   346   -231.8953381137  1.14D-08  6.70D-07  4.79D-07   130.6
                                                     1.47D-06  3.36D-07
 d= 0,ls=0.5,diis   347   -231.8953381851 -7.13D-08  9.46D-07  4.82D-07   131.0
                                                     1.67D-06  3.35D-07
 d= 0,ls=0.5,diis   348   -231.8953383422 -1.57D-07  6.79D-07  3.32D-07   131.3
                                                     1.66D-06  2.62D-07
 d= 0,ls=0.5,diis   349   -231.8953384796 -1.37D-07  2.51D-06  2.33D-07   131.7
                                                     1.88D-06  2.05D-07
 d= 0,ls=0.5,diis   350   -231.8953384368  4.28D-08  2.49D-06  4.68D-07   132.1
                                                     2.19D-06  3.21D-07
 d= 0,ls=0.5,diis   351   -231.8953386640 -2.27D-07  6.42D-07  1.68D-07   132.5
                                                     1.56D-06  1.68D-07
 d= 0,ls=0.5,diis   352   -231.8953387346 -7.06D-08  4.83D-07  1.91D-07   132.8
                                                     1.51D-06  1.76D-07
 d= 0,ls=0.5,diis   353   -231.8953388075 -7.28D-08  3.57D-07  1.97D-07   133.2
                                                     1.48D-06  1.78D-07
 d= 0,ls=0.5,diis   354   -231.8953388848 -7.74D-08  1.21D-06  1.89D-07   133.6
                                                     1.49D-06  1.72D-07
 d= 0,ls=0.5,diis   355   -231.8953389212 -3.64D-08  7.75D-07  2.53D-07   134.0
                                                     1.60D-06  1.98D-07
 d= 0,ls=0.5,diis   356   -231.8953390414 -1.20D-07  9.23D-07  1.52D-07   134.4
                                                     1.46D-06  1.39D-07
 d= 0,ls=0.5,diis   357   -231.8953390843 -4.30D-08  2.09D-06  2.05D-07   134.7
                                                     1.63D-06  1.69D-07
 d= 0,ls=0.5,diis   358   -231.8953390580  2.63D-08  9.75D-07  3.82D-07   135.1
                                                     1.26D-06  2.57D-07
 d= 0,ls=0.5,diis   359   -231.8953390769 -1.88D-08  1.87D-06  4.48D-07   135.5
                                                     1.41D-06  2.96D-07
 d= 0,ls=0.5,diis   360   -231.8953390181  5.88D-08  4.15D-07  6.62D-07   135.9
                                                     1.09D-06  4.06D-07
 d= 0,ls=0.5,diis   361   -231.8953390756 -5.75D-08  9.91D-07  6.24D-07   136.2
                                                     1.32D-06  3.99D-07
 d= 0,ls=0.5,diis   362   -231.8953392079 -1.32D-07  1.95D-06  4.55D-07   136.6
                                                     1.80D-06  3.13D-07
 d= 0,ls=0.5,diis   363   -231.8953393837 -1.76D-07  2.51D-06  2.26D-07   137.0
                                                     2.18D-06  1.91D-07
 d= 0,ls=0.5,diis   364   -231.8953395484 -1.65D-07  1.65D-06  4.89D-08   137.4
                                                     1.97D-06  7.99D-08
 d= 0,ls=0.5,diis   365   -231.8953396489 -1.00D-07  2.73D-06  4.01D-09   137.8
                                                     2.00D-06  4.04D-08
 d= 0,ls=0.5,diis   366   -231.8953396840 -3.51D-08  3.84D-06  5.08D-08   138.1
                                                     2.33D-06  6.72D-08
 d= 0,ls=0.5,diis   367   -231.8953396123  7.17D-08  1.63D-06  2.92D-07   138.5
                                                     1.31D-06  1.88D-07
 d= 0,ls=0.5,diis   368   -231.8953395906  2.17D-08  1.44D-06  4.04D-07   138.9
                                                     1.50D-06  2.50D-07
 d= 0,ls=0.5,diis   369   -231.8953397221 -1.31D-07  1.75D-06  2.24D-07   139.3
                                                     1.66D-06  1.63D-07
 d= 0,ls=0.5,diis   370   -231.8953398453 -1.23D-07  5.39D-07  8.84D-08   139.6
                                                     1.28D-06  9.33D-08
 d= 0,ls=0.5,diis   371   -231.8953398891 -4.38D-08  2.77D-06  1.06D-07   140.0
                                                     1.82D-06  1.05D-07
 d= 0,ls=0.5,diis   372   -231.8953398267  6.24D-08  5.58D-07  3.15D-07   140.4
                                                     1.04D-06  2.18D-07
 d= 0,ls=0.5,diis   373   -231.8953398605 -3.38D-08  1.30D-06  3.09D-07   140.8
                                                     1.12D-06  2.22D-07
 d= 0,ls=0.5,diis   374   -231.8953398360  2.45D-08  2.91D-06  4.25D-07   141.1
                                                     2.10D-06  2.84D-07
 d= 0,ls=0.5,diis   375   -231.8953400276 -1.92D-07  1.60D-06  1.23D-07   141.5
                                                     1.64D-06  1.20D-07
 d= 0,ls=0.5,diis   376   -231.8953401293 -1.02D-07  8.10D-07  3.27D-08   141.9
                                                     1.51D-06  5.74D-08
 d= 0,ls=0.5,diis   377   -231.8953401974 -6.81D-08  2.51D-06  7.18D-09   142.3
                                                     1.72D-06  3.50D-08
 d= 0,ls=0.5,diis   378   -231.8953402013 -3.89D-09  3.54D-07  8.20D-08   142.7
                                                     1.13D-06  7.51D-08
 d= 0,ls=0.5,diis   379   -231.8953402452 -4.39D-08  1.30D-06  7.15D-08   143.0
                                                     1.21D-06  7.03D-08
 d= 0,ls=0.5,diis   380   -231.8953402525 -7.29D-09  2.03D-06  1.29D-07   143.4
                                                     1.72D-06  9.96D-08
 d= 0,ls=0.5,diis   381   -231.8953403480 -9.55D-08  6.17D-07  2.26D-08   143.8
                                                     1.19D-06  4.39D-08
 d= 0,ls=0.5,diis   382   -231.8953403832 -3.52D-08  2.31D-06  3.31D-08   144.2
                                                     1.56D-06  4.91D-08
 d= 0,ls=0.5,diis   383   -231.8953403630  2.02D-08  5.47D-07  1.38D-07   144.5
                                                     9.68D-07  1.07D-07
 d= 0,ls=0.5,diis   384   -231.8953403880 -2.50D-08  4.82D-07  1.44D-07   144.9
                                                     1.03D-06  1.13D-07
 d= 0,ls=0.5,diis   385   -231.8953404405 -5.26D-08  8.18D-07  9.84D-08   145.3
                                                     1.19D-06  8.89D-08
 d= 0,ls=0.5,diis   386   -231.8953405030 -6.25D-08  7.24D-07  4.57D-08   145.7
                                                     1.25D-06  5.66D-08
 d= 0,ls=0.5,diis   387   -231.8953405562 -5.32D-08  2.11D-06  1.74D-08   146.1
                                                     1.44D-06  3.68D-08
 d= 0,ls=0.5,diis   388   -231.8953405532  2.99D-09  6.30D-07  8.63D-08   146.4
                                                     9.81D-07  7.18D-08
 d= 0,ls=0.5,diis   389   -231.8953405752 -2.20D-08  2.06D-06  9.68D-08   146.8
                                                     1.32D-06  7.70D-08
 d= 0,ls=0.5,diis   390   -231.8953405349  4.03D-08  5.18D-07  2.27D-07   147.2
                                                     8.96D-07  1.40D-07
 d= 0,ls=0.5,diis   391   -231.8953405835 -4.86D-08  1.86D-06  1.71D-07   147.6
                                                     1.48D-06  1.17D-07
 d= 0,ls=0.5,diis   392   -231.8953406745 -9.11D-08  9.28D-07  4.94D-08   148.0
                                                     1.20D-06  5.30D-08
 d= 0,ls=0.5,diis   393   -231.8953407257 -5.11D-08  5.20D-07  1.60D-08   148.3
                                                     1.03D-06  3.15D-08
 d= 0,ls=0.5,diis   394   -231.8953407527 -2.70D-08  1.98D-06  2.20D-08   148.7
                                                     1.34D-06  3.35D-08
 d= 0,ls=0.5,diis   395   -231.8953407403  1.23D-08  7.10D-07  9.55D-08   149.1
                                                     8.58D-07  7.16D-08
 d= 0,ls=0.5,diis   396   -231.8953407499 -9.53D-09  5.57D-07  1.16D-07   149.5
                                                     8.00D-07  8.45D-08
 d= 0,ls=0.5,diis   397   -231.8953407595 -9.64D-09  2.00D-06  1.38D-07   149.8
                                                     1.53D-06  9.78D-08
 d= 0,ls=0.5,diis   398   -231.8953408414 -8.19D-08  4.57D-07  2.65D-08   150.2
                                                     1.03D-06  3.66D-08
 d= 0,ls=0.5,diis   399   -231.8953408776 -3.61D-08  9.42D-07  1.23D-08   150.6
                                                     1.01D-06  2.52D-08
 d= 0,ls=0.5,diis   400   -231.8953408937 -1.61D-08  1.13D-06  2.86D-08   151.0
                                                     9.95D-07  3.37D-08
 d= 0,ls=0.5,diis   401   -231.8953409000 -6.32D-09  2.88D-06  5.93D-08   151.4
                                                     1.65D-06  4.86D-08
 d= 0,ls=0.5,diis   402   -231.8953408264  7.36D-08  7.72D-07  2.43D-07   151.7
                                                     6.74D-07  1.39D-07
 d= 0,ls=0.5,diis   403   -231.8953408179  8.48D-09  9.50D-07  2.77D-07   152.1
                                                     8.73D-07  1.61D-07
 d= 0,ls=0.5,diis   404   -231.8953408777 -5.98D-08  1.39D-06  1.82D-07   152.5
                                                     1.12D-06  1.17D-07
 d= 0,ls=0.5,diis   405   -231.8953409468 -6.91D-08  2.05D-06  8.39D-08   152.9
                                                     1.51D-06  6.75D-08
 d= 0,ls=0.5,diis   406   -231.8953410123 -6.55D-08  1.30D-06  8.67D-09   153.3
                                                     1.07D-06  2.15D-08
 d= 0,ls=0.5,diis   407   -231.8953410205 -8.13D-09  1.49D-06  3.40D-08   153.6
                                                     1.04D-06  3.48D-08
 d= 0,ls=0.5,diis   408   -231.8953410086  1.19D-08  4.95D-07  9.16D-08   154.0
                                                     6.92D-07  6.61D-08
 d= 0,ls=0.5,diis   409   -231.8953410174 -8.82D-09  1.73D-06  1.02D-07   154.4
                                                     1.31D-06  7.25D-08
 d= 0,ls=0.5,diis   410   -231.8953410782 -6.07D-08  3.29D-07  1.91D-08   154.8
                                                     8.57D-07  2.67D-08
 d= 0,ls=0.5,diis   411   -231.8953411030 -2.49D-08  5.68D-07  1.12D-08   155.1
                                                     9.54D-07  2.01D-08
 d= 0,ls=0.5,diis   412   -231.8953411292 -2.61D-08  1.85D-06  1.42D-09   155.5
                                                     1.23D-06  1.24D-08
 d= 0,ls=0.5,diis   413   -231.8953411279  1.26D-09  2.37D-07  3.60D-08   155.9
                                                     7.28D-07  3.17D-08
 d= 0,ls=0.5,diis   414   -231.8953411461 -1.82D-08  1.33D-06  2.93D-08   156.3
                                                     9.35D-07  2.95D-08
 d= 0,ls=0.5,diis   415   -231.8953411345  1.16D-08  1.28D-06  7.94D-08   156.7
                                                     8.49D-07  5.75D-08
 d= 0,ls=0.5,diis   416   -231.8953411121  2.24D-08  1.70D-06  1.44D-07   157.0
                                                     1.22D-06  9.19D-08
 d= 0,ls=0.5,diis   417   -231.8953411751 -6.29D-08  1.82D-06  4.21D-08   157.4
                                                     1.37D-06  3.97D-08
 d= 0,ls=0.5,diis   418   -231.8953412167 -4.16D-08  7.02D-07  2.54D-09   157.8
                                                     8.48D-07  1.22D-08
 d= 0,ls=0.5,diis   419   -231.8953412322 -1.55D-08  1.41D-06  3.84D-09   158.2
                                                     9.69D-07  1.23D-08
 d= 0,ls=0.5,diis   420   -231.8953412319  3.50D-10  1.83D-06  3.21D-08   158.5
                                                     1.11D-06  2.83D-08
 d= 0,ls=0.5,diis   421   -231.8953412041  2.78D-08  1.38D-06  1.09D-07   158.9
                                                     1.03D-06  6.84D-08
 d= 0,ls=0.5,diis   422   -231.8953412512 -4.71D-08  7.97D-07  3.33D-08   159.3
[...]
 
 Vector   86  Occ=0.000000D+00  E= 2.141760D+00
              MO Center= -5.7D-01,  1.9D-01, -5.6D-01, r^2= 3.8D+00
   Bfn.  Coefficient  Atom+Function         Bfn.  Coefficient  Atom+Function  
  ----- ------------  ---------------      ----- ------------  ---------------
    72      3.995133  11 C  s                71     -3.233165  11 C  s         
    70      2.224304  11 C  s                60      2.130320   8 C  pz        
    38     -1.941043   5 C  py               80     -1.908637  11 C  py        
    59      1.807304   8 C  py               58      1.530734   8 C  px        
    83     -1.289994  12 H  s                39     -1.211915   5 C  pz        
 
 Vector   87  Occ=0.000000D+00  E= 2.198173D+00
              MO Center= -6.9D-01,  1.0D+00, -8.6D-03, r^2= 3.5D+00
   Bfn.  Coefficient  Atom+Function         Bfn.  Coefficient  Atom+Function  
  ----- ------------  ---------------      ----- ------------  ---------------
    29      1.965647   5 C  s                51     -1.756464   8 C  s         
    30     -1.609102   5 C  s                50      1.553049   8 C  s         
    28     -1.466353   5 C  s                49     -1.150002   8 C  s         
    71      1.059495  11 C  s                95     -1.004743  13 O  py        
    70     -0.996202  11 C  s                79     -0.902584  11 C  px        
 
 Vector   88  Occ=0.000000D+00  E= 2.266579D+00
              MO Center= -1.5D-01, -2.2D-01,  3.6D-01, r^2= 4.2D+00
   Bfn.  Coefficient  Atom+Function         Bfn.  Coefficient  Atom+Function  
  ----- ------------  ---------------      ----- ------------  ---------------
    30      4.977640   5 C  s                29     -3.891101   5 C  s         
    28      2.679604   5 C  s                72     -2.202991  11 C  s         
    79     -1.510452  11 C  px               71      1.257679  11 C  s         
     5     -1.219018   1 C  s                41     -1.166404   6 H  s         
    44     -1.076618   7 H  s                59      1.054372   8 C  py        
 
 Vector   89  Occ=0.000000D+00  E= 2.289211D+00
              MO Center=  9.0D-01, -5.8D-01,  1.3D-01, r^2= 4.6D+00
   Bfn.  Coefficient  Atom+Function         Bfn.  Coefficient  Atom+Function  
  ----- ------------  ---------------      ----- ------------  ---------------
    51     -5.096196   8 C  s                 6      4.800061   1 C  s         
     5     -3.649314   1 C  s                50      3.587217   8 C  s         
     4      2.538554   1 C  s                49     -2.340072   8 C  s         
    38      1.170411   5 C  py               62      0.980418   9 H  s         
    79      0.960527  11 C  px               37     -0.953173   5 C  px        
 
 Vector   90  Occ=0.000000D+00  E= 2.455553D+00
              MO Center=  7.5D-01, -5.8D-01,  6.1D-02, r^2= 4.2D+00
   Bfn.  Coefficient  Atom+Function         Bfn.  Coefficient  Atom+Function  
  ----- ------------  ---------------      ----- ------------  ---------------
    51      6.499888   8 C  s                30     -5.899581   5 C  s         
     6      5.436320   1 C  s                50     -3.558891   8 C  s         
    72     -3.479342  11 C  s                 5     -3.215031   1 C  s         
    29      2.795328   5 C  s                49      2.267682   8 C  s         
     4      2.163633   1 C  s                28     -1.755699   5 C  s         
 
 Vector   91  Occ=0.000000D+00  E= 2.532514D+00
              MO Center= -1.2D+00,  1.7D+00, -1.6D-01, r^2= 1.9D+00
   Bfn.  Coefficient  Atom+Function         Bfn.  Coefficient  Atom+Function  
  ----- ------------  ---------------      ----- ------------  ---------------
    51      2.138625   8 C  s                97      1.767131  13 O  px        
    50     -1.731917   8 C  s                94     -1.706764  13 O  px        
    79     -1.345934  11 C  px              101      1.224478  14 H  s         
    49      1.150395   8 C  s                84     -1.036427  12 H  s         
    91      0.972124  13 O  px              100     -0.916357  14 H  s         
 
 Vector   92  Occ=0.000000D+00  E= 4.169617D+00
              MO Center= -1.3D+00,  1.8D+00, -1.6D-01, r^2= 9.5D-01
   Bfn.  Coefficient  Atom+Function         Bfn.  Coefficient  Atom+Function  
  ----- ------------  ---------------      ----- ------------  ---------------
    89      5.047379  13 O  s                90     -4.016180  13 O  s         
    88     -3.900282  13 O  s                72      2.012023  11 C  s         
    59     -1.484611   8 C  py               80      1.286195  11 C  py        
    81      0.907950  11 C  pz               87      0.814133  13 O  s         
    84      0.710480  12 H  s                39      0.701617   5 C  pz        
 
 Vector   93  Occ=0.000000D+00  E= 1.108666D+01
              MO Center= -7.7D-01,  5.4D-01, -6.3D-01, r^2= 9.8D-01
   Bfn.  Coefficient  Atom+Function         Bfn.  Coefficient  Atom+Function  
  ----- ------------  ---------------      ----- ------------  ---------------
    70     -3.093440  11 C  s                69      3.002913  11 C  s         
    71      2.681265  11 C  s                72     -1.756562  11 C  s         
    68     -1.572305  11 C  s                49     -1.188179   8 C  s         
    48      1.164004   8 C  s                50      0.959091   8 C  s         
    47     -0.608459   8 C  s                58     -0.494261   8 C  px        
 
 Vector   94  Occ=0.000000D+00  E= 1.125039D+01
              MO Center=  6.6D-01, -1.1D+00,  5.7D-01, r^2= 1.1D+00
   Bfn.  Coefficient  Atom+Function         Bfn.  Coefficient  Atom+Function  
  ----- ------------  ---------------      ----- ------------  ---------------
    28     -2.794714   5 C  s                27      2.677108   5 C  s         
    29      2.488456   5 C  s                30     -1.976144   5 C  s         
     4     -1.797381   1 C  s                 3      1.769458   1 C  s         
     5      1.501066   1 C  s                26     -1.395901   5 C  s         
     2     -0.924521   1 C  s                 6     -0.835818   1 C  s         
 
 Vector   95  Occ=0.000000D+00  E= 1.127220D+01
              MO Center=  1.2D+00, -1.4D+00,  6.6D-01, r^2= 8.8D-01
   Bfn.  Coefficient  Atom+Function         Bfn.  Coefficient  Atom+Function  
  ----- ------------  ---------------      ----- ------------  ---------------
     4     -2.834866   1 C  s                 3      2.701010   1 C  s         
     5      2.589732   1 C  s                 6     -2.301440   1 C  s         
    28      1.980202   5 C  s                27     -1.858940   5 C  s         
    29     -1.867124   5 C  s                30      1.819386   5 C  s         
     2     -1.412461   1 C  s                26      0.970693   5 C  s         
 
 Vector   96  Occ=0.000000D+00  E= 1.133399D+01
              MO Center=  1.3D-01,  2.1D-01, -5.7D-01, r^2= 7.3D-01
   Bfn.  Coefficient  Atom+Function         Bfn.  Coefficient  Atom+Function  
  ----- ------------  ---------------      ----- ------------  ---------------
    49     -3.230503   8 C  s                50      3.052929   8 C  s         
    48      3.023499   8 C  s                51     -2.970785   8 C  s         
    72      1.706806  11 C  s                47     -1.572351   8 C  s         
    71     -1.403252  11 C  s                70      1.371810  11 C  s         
    69     -1.264286  11 C  s                68      0.657711  11 C  s         
 
 Vector   97  Occ=0.000000D+00  E= 2.142886D+01
              MO Center= -1.3D+00,  1.8D+00, -1.5D-01, r^2= 2.1D-01
   Bfn.  Coefficient  Atom+Function         Bfn.  Coefficient  Atom+Function  
  ----- ------------  ---------------      ----- ------------  ---------------
    87      3.322862  13 O  s                88     -3.221612  13 O  s         
    89      2.582176  13 O  s                86     -1.741876  13 O  s         
    90     -1.650869  13 O  s                72      0.762330  11 C  s         
    59     -0.538426   8 C  py               80      0.506176  11 C  py        
    81      0.353214  11 C  pz               84      0.273446  12 H  s         
 
 Vector   98  Occ=0.000000D+00  E= 6.202478D+01
              MO Center= -7.8D-01,  5.5D-01, -6.3D-01, r^2= 6.5D-01
   Bfn.  Coefficient  Atom+Function         Bfn.  Coefficient  Atom+Function  
  ----- ------------  ---------------      ----- ------------  ---------------
    68      2.703460  11 C  s                69     -2.058956  11 C  s         
    67     -1.599190  11 C  s                70      1.376758  11 C  s         
    71     -1.132097  11 C  s                47      1.025734   8 C  s         
    48     -0.780417   8 C  s                72      0.747878  11 C  s         
    46     -0.607926   8 C  s                49      0.515592   8 C  s         
 
 Vector   99  Occ=0.000000D+00  E= 6.218680D+01
              MO Center=  6.6D-01, -1.1D+00,  5.8D-01, r^2= 7.8D-01
   Bfn.  Coefficient  Atom+Function         Bfn.  Coefficient  Atom+Function  
  ----- ------------  ---------------      ----- ------------  ---------------
    26      2.411849   5 C  s                27     -1.845289   5 C  s         
     2      1.603187   1 C  s                25     -1.423913   5 C  s         
    28      1.248827   5 C  s                 3     -1.223987   1 C  s         
    29     -1.049948   5 C  s                 1     -0.947423   1 C  s         
    30      0.816679   5 C  s                 4      0.809123   1 C  s         
 
 Vector  100  Occ=0.000000D+00  E= 6.221638D+01
              MO Center=  1.2D+00, -1.4D+00,  6.5D-01, r^2= 6.6D-01
   Bfn.  Coefficient  Atom+Function         Bfn.  Coefficient  Atom+Function  
  ----- ------------  ---------------      ----- ------------  ---------------
     2      2.407034   1 C  s                 3     -1.837113   1 C  s         
    26     -1.665217   5 C  s                 1     -1.422074   1 C  s         
    27      1.273390   5 C  s                 4      1.250502   1 C  s         
     5     -1.081913   1 C  s                25      0.982842   5 C  s         
     6      0.954474   1 C  s                28     -0.878149   5 C  s         
 
 Vector  101  Occ=0.000000D+00  E= 6.228193D+01
              MO Center=  1.5D-01,  2.0D-01, -5.7D-01, r^2= 4.5D-01
   Bfn.  Coefficient  Atom+Function         Bfn.  Coefficient  Atom+Function  
  ----- ------------  ---------------      ----- ------------  ---------------
    47      2.721977   8 C  s                48     -2.090977   8 C  s         
    46     -1.603976   8 C  s                49      1.455519   8 C  s         
    50     -1.307123   8 C  s                51      1.273018   8 C  s         
    68     -1.095361  11 C  s                69      0.842864  11 C  s         
    72     -0.706665  11 C  s                67      0.644152  11 C  s         
 
 Vector  102  Occ=0.000000D+00  E= 1.173647D+02
              MO Center= -1.3D+00,  1.8D+00, -1.4D-01, r^2= 4.5D-02
   Bfn.  Coefficient  Atom+Function         Bfn.  Coefficient  Atom+Function  
  ----- ------------  ---------------      ----- ------------  ---------------
    86      2.969750  13 O  s                87     -2.273809  13 O  s         
    85     -1.756191  13 O  s                88      1.435870  13 O  s         
    89     -1.085993  13 O  s                90      0.696645  13 O  s         
    72     -0.328036  11 C  s                59      0.229123   8 C  py        
    80     -0.215575  11 C  py               81     -0.151245  11 C  pz        
 

   alpha - beta orbital overlaps 
   ----------------------------- 


   alpha      1      2      3      4      5      6      7      8      9     10
    beta      1      2      3      4      5      6      7      8      9     10
 overlap   1.000  1.000  1.000  1.000  1.000  1.000  0.998  0.997  0.990  0.988


   alpha     11     12     13     14     15     16     17     18     19     20
    beta     11     12     13     14     15     16     17     20     18     19
 overlap   0.997  0.906  0.899  0.998  0.948  0.950  0.954  0.918  0.943  0.994


   alpha     21     22     23     24     25     26     27     28     29     30
    beta     21     22     23     24     25     26     27     28     29     30
 overlap   1.000  1.000  0.997  0.968  0.989  0.966  0.994  0.986  0.993  0.983


   alpha     31     32     33     34     35     36     37     38     39     40
    beta     31     32     33     34     35     36     37     38     39     40
 overlap   0.977  0.996  0.994  0.996  0.996  0.993  0.982  0.985  0.993  0.992


   alpha     41     42     43     44     45     46     47     48     49     50
    beta     41     42     43     44     45     46     47     48     49     50
 overlap   0.995  0.998  0.990  0.989  0.998  0.982  0.973  0.976  0.794  0.659


   alpha     51     52     53     54     55     56     57     58     59     60
    beta     51     52     53     54     55     56     57     58     59     60
 overlap   0.810  0.963  0.982  0.940  0.805  0.836  0.998  0.998  1.000  1.000


   alpha     61     62     63     64     65     66     67     68     69     70
    beta     61     62     63     64     65     66     67     68     69     70
 overlap   0.999  1.000  1.000  0.999  0.999  0.995  0.780  0.785  0.990  0.980


   alpha     71     72     73     74     75     76     77     78     79     80
    beta     71     72     73     74     75     76     77     78     80     79
 overlap   0.983  0.996  1.000  0.996  0.997  1.000  0.986  0.984  0.901  0.905


   alpha     81     82     83     84     85     86     87     88     89     90
    beta     81     82     83     84     85     86     87     88     89     90
 overlap   0.984  0.988  0.984  0.998  0.998  0.999  0.997  0.992  0.994  0.999


   alpha     91     92     93     94     95     96     97     98     99    100
    beta     91     92     93     94     95     96     97     98     99    100
 overlap   1.000  1.000  1.000  0.999  0.999  1.000  1.000  1.000  1.000  1.000


   alpha    101    102
    beta    101    102
 overlap   1.000  1.000

     --------------------------
     Expectation value of S2:  
     --------------------------
      <S2> =      0.7512 (Exact =     0.7500)
 

 center of mass
 --------------
 x =  -0.07897350 y =   0.11808402 z =  -0.02484298

 moments of inertia (a.u.)
 ------------------
         538.123512278363         338.126382445747        -110.444872948074
         338.126382445747         455.521138842120         131.188151620444
        -110.444872948074         131.188151620444         779.448634072481
 
     Multipole analysis of the density
     ---------------------------------
 
     L   x y z        total         alpha         beta         nuclear
     -   - - -        -----         -----         ----         -------
     0   0 0 0      2.000000    -20.000000    -19.000000     41.000000
 
     1   1 0 0     -0.435459     -1.088830      0.653370      0.000000
     1   0 1 0     -0.738533      0.593299     -1.331832     -0.000000
     1   0 0 1     -0.069751     -0.528451      0.458699      0.000000
 
     2   2 0 0     -0.386601   -111.293892   -103.452495    214.359786
     2   1 1 0    -13.421618     92.465515     87.490919   -193.378051
     2   1 0 1      5.484879    -31.130758    -28.495448     65.111085
     2   0 2 0     -5.385933   -132.099688   -123.651743    250.365498
     2   0 1 1     -4.932623     36.701607     33.737654    -75.371884
     2   0 0 2    -14.941177    -44.017010    -41.323483     70.399316
 

 Task  times  cpu:      205.1s     wall:      210.6s
 
 
                                NWChem Input Module
                                -------------------
 
 
 Summary of allocated global arrays
-----------------------------------
  No active global arrays



                         GA Statistics for process    0
                         ------------------------------

       create   destroy   get      put      acc     scatter   gather  read&inc
calls: 1.07e+04 1.07e+04 1.92e+06 6.11e+04 1.36e+06    0        0     1.67e+04 
number of processes/call 9.67e+00 7.63e+01 8.13e+00 0.00e+00 0.00e+00
bytes total:             2.81e+09 3.59e+08 1.47e+09 0.00e+00 0.00e+00 1.34e+05
bytes remote:            2.25e+09 1.87e+08 1.25e+09 0.00e+00 0.00e+00 0.00e+00
Max memory consumed for GA by this process: 791880 bytes
 
 
 
                                     CITATION
                                     --------
                Please cite the following reference when publishing
                           results obtained with NWChem:
 
          E. Apr, E. J. Bylaska, W. A. de Jong, N. Govind, K. Kowalski,
       T. P. Straatsma, M. Valiev, H. J. J. van Dam, Y. Alexeev, J. Anchell,
       V. Anisimov, F. W. Aquino, R. Atta-Fynn, J. Autschbach, N. P. Bauman,
     J. C. Becca, D. E. Bernholdt, K. Bhaskaran-Nair, S. Bogatko, P. Borowski,
        J. Boschen, J. Brabec, A. Bruner, E. Caut, Y. Chen, G. N. Chuev,
      C. J. Cramer, J. Daily, M. J. O. Deegan, T. H. Dunning Jr., M. Dupuis,
   K. G. Dyall, G. I. Fann, S. A. Fischer, A. Fonari, H. Frchtl, L. Gagliardi,
      J. Garza, N. Gawande, S. Ghosh, K. Glaesemann, A. W. Gtz, J. Hammond,
       V. Helms, E. D. Hermes, K. Hirao, S. Hirata, M. Jacquelin, L. Jensen,
   B. G. Johnson, H. Jnsson, R. A. Kendall, M. Klemm, R. Kobayashi, V. Konkov,
      S. Krishnamoorthy, M. Krishnan, Z. Lin, R. D. Lins, R. J. Littlefield,
      A. J. Logsdail, K. Lopata, W. Ma, A. V. Marenich, J. Martin del Campo,
   D. Mejia-Rodriguez, J. E. Moore, J. M. Mullin, T. Nakajima, D. R. Nascimento,
    J. A. Nichols, P. J. Nichols, J. Nieplocha, A. Otero-de-la-Roza, B. Palmer,
    A. Panyala, T. Pirojsirikul, B. Peng, R. Peverati, J. Pittner, L. Pollack,
   R. M. Richard, P. Sadayappan, G. C. Schatz, W. A. Shelton, D. W. Silverstein,
   D. M. A. Smith, T. A. Soares, D. Song, M. Swart, H. L. Taylor, G. S. Thomas,
            V. Tipparaju, D. G. Truhlar, K. Tsemekhman, T. Van Voorhis,
     . Vzquez-Mayagoitia, P. Verma, O. Villa, A. Vishnu, K. D. Vogiatzis,
        D. Wang, J. H. Weare, M. J. Williamson, T. L. Windus, K. Woliski,
        A. T. Wong, Q. Wu, C. Yang, Q. Yu, M. Zacharias, Z. Zhang, Y. Zhao,
                                and R. J. Harrison
                        "NWChem: Past, present, and future
                         J. Chem. Phys. 152, 184102 (2020)
                               doi:10.1063/5.0004997
 
                                      AUTHORS
                                      -------
     E. Apra, E. J. Bylaska, N. Govind, K. Kowalski, M. Valiev, W. A. de Jong,
      T. P. Straatsma, H. J. J. van Dam, D. Wang, T. L. Windus, N. P. Bauman,
       A. Panyala, J. Hammond, J. Autschbach, K. Bhaskaran-Nair, J. Brabec,
    K. Lopata, S. A. Fischer, S. Krishnamoorthy, M. Jacquelin, W. Ma, M. Klemm,
       O. Villa, Y. Chen, V. Anisimov, F. Aquino, S. Hirata, M. T. Hackler,
           Eric Hermes, L. Jensen, J. E. Moore, J. C. Becca, V. Konjkov,
            D. Mejia-Rodriguez, T. Risthaus, M. Malagoli, A. Marenich,
   A. Otero-de-la-Roza, J. Mullin, P. Nichols, R. Peverati, J. Pittner, Y. Zhao,
        P.-D. Fan, A. Fonari, M. J. Williamson, R. J. Harrison, J. R. Rehr,
      M. Dupuis, D. Silverstein, D. M. A. Smith, J. Nieplocha, V. Tipparaju,
      M. Krishnan, B. E. Van Kuiken, A. Vazquez-Mayagoitia, M. Swart, Q. Wu,
   T. Van Voorhis, A. A. Auer, M. Nooijen, L. D. Crosby, E. Brown, G. Cisneros,
     G. I. Fann, H. Fruchtl, J. Garza, K. Hirao, R. A. Kendall, J. A. Nichols,
       K. Tsemekhman, K. Wolinski, J. Anchell, D. E. Bernholdt, P. Borowski,
       T. Clark, D. Clerc, H. Dachsel, M. J. O. Deegan, K. Dyall, D. Elwood,
      E. Glendening, M. Gutowski, A. C. Hess, J. Jaffe, B. G. Johnson, J. Ju,
        R. Kobayashi, R. Kutteh, Z. Lin, R. Littlefield, X. Long, B. Meng,
      T. Nakajima, S. Niu, L. Pollack, M. Rosing, K. Glaesemann, G. Sandrone,
      M. Stave, H. Taylor, G. Thomas, J. H. van Lenthe, A. T. Wong, Z. Zhang.

 Total times  cpu:      205.1s     wall:      210.7s
