 
             Northwest Computational Chemistry Package (NWChem) 7.0.0
             --------------------------------------------------------
 
 
                    Environmental Molecular Sciences Laboratory
                       Pacific Northwest National Laboratory
                                Richland, WA 99352
 
                              Copyright (c) 1994-2020
                       Pacific Northwest National Laboratory
                            Battelle Memorial Institute
 
             NWChem is an open-source computational chemistry package
                        distributed under the terms of the
                      Educational Community License (ECL) 2.0
             A copy of the license is included with this distribution
                              in the LICENSE.TXT file
 
                                  ACKNOWLEDGMENT
                                  --------------

            This software and its documentation were developed at the
            EMSL at Pacific Northwest National Laboratory, a multiprogram
            national laboratory, operated for the U.S. Department of Energy
            by Battelle under Contract Number DE-AC05-76RL01830. Support
            for this work was provided by the Department of Energy Office
            of Biological and Environmental Research, Office of Basic
            Energy Sciences, and the Office of Advanced Scientific Computing.


                                NWChem Input Module
                                -------------------
 
 
 Summary of "ao basis" -> "" (spherical)
 ------------------------------------------------------------------------------
       Tag                 Description            Shells   Functions and Types
 ---------------- ------------------------------  ------  ---------------------
 *                        ahlrichs_vtz                on all atoms 



 Scaling coordinates for geometry "geometry" by  1.889725989
 (inverse scale =  0.529177249)

 
 
                             Geometry "geometry" -> ""
                             -------------------------
 
 Output coordinates in angstroms (scale by  1.889725989 to convert to a.u.)
 
  No.       Tag          Charge          X              Y              Z
 ---- ---------------- ---------- -------------- -------------- --------------
    1 C                    6.0000    -0.33576444     0.02707915     0.30267588
    2 C                    6.0000     1.02859642     0.46202853     0.47802541
    3 H                    1.0000     1.45750867    -0.03482087     1.37417700
    4 H                    1.0000     1.03536240     1.53490430     0.76574533
    5 O                    8.0000    -0.69697506    -0.50731733    -0.82483868
    6 H                    1.0000    -1.08722284     0.13370915     1.09887294
    7 H                    1.0000     1.65797168     0.29097802    -0.39990419
    8 H                    1.0000    -1.64481135    -0.80087813    -0.92438929
 
      Atomic Mass 
      ----------- 
 
      C                 12.000000
      H                  1.007825
      O                 15.994910
 

 Effective nuclear repulsion energy (a.u.)      76.3258439625

            Nuclear Dipole moment (a.u.) 
            ----------------------------
        X                 Y               Z
 ---------------- ---------------- ----------------
    -0.0000000000     0.0000000000    -0.0000000000
 
 
            XYZ format geometry
            -------------------
     8
 geometry
 C                    -0.33576444     0.02707915     0.30267588
 C                     1.02859642     0.46202853     0.47802541
 H                     1.45750867    -0.03482087     1.37417700
 H                     1.03536240     1.53490430     0.76574533
 O                    -0.69697506    -0.50731733    -0.82483868
 H                    -1.08722284     0.13370915     1.09887294
 H                     1.65797168     0.29097802    -0.39990419
 H                    -1.64481135    -0.80087813    -0.92438929
 
 ==============================================================================
                                internuclear distances
 ------------------------------------------------------------------------------
       center one      |      center two      | atomic units |  angstroms
 ------------------------------------------------------------------------------
    2 C                |   1 C                |     2.72632  |     1.44271
    3 H                |   2 C                |     2.09914  |     1.11082
    4 H                |   2 C                |     2.09912  |     1.11081
    5 O                |   1 C                |     2.45471  |     1.29898
    6 H                |   1 C                |     2.07869  |     1.10000
    7 H                |   2 C                |     2.06675  |     1.09368
    8 H                |   5 O                |     1.88450  |     0.99724
 ------------------------------------------------------------------------------
                         number of included internuclear distances:          7
 ==============================================================================



 ==============================================================================
                                 internuclear angles
 ------------------------------------------------------------------------------
        center 1       |       center 2       |       center 3       |  degrees
 ------------------------------------------------------------------------------
    2 C                |   1 C                |   5 O                |   119.50
    2 C                |   1 C                |   6 H                |   121.93
    5 O                |   1 C                |   6 H                |   118.57
    1 C                |   2 C                |   3 H                |   109.17
    1 C                |   2 C                |   4 H                |   109.17
    1 C                |   2 C                |   7 H                |   113.55
    3 H                |   2 C                |   4 H                |   102.75
    3 H                |   2 C                |   7 H                |   110.82
    4 H                |   2 C                |   7 H                |   110.82
    1 C                |   5 O                |   8 H                |   118.17
 ------------------------------------------------------------------------------
                            number of included internuclear angles:         10
 ==============================================================================



                              Aldehyde and Ketone set
                              -----------------------
 
                                 NWChem DFT Module
                                 -----------------
 
 
                              Aldehyde and Ketone set
 
 
                      Basis "ao basis" -> "ao basis" (spherical)
                      -----
  C (Carbon)
  ----------
            Exponent  Coefficients 
       -------------- ---------------------------------------------------------
  1 S  8.50603840E+03  0.000534
  1 S  1.27573290E+03  0.004125
  1 S  2.90311870E+02  0.021171
  1 S  8.20562000E+01  0.082418
  1 S  2.64796410E+01  0.240129
 
  2 S  9.24145850E+00  1.000000
 
  3 S  3.36435300E+00  1.000000
 
  4 S  8.71741640E-01  1.000000
 
  5 S  3.63523520E-01  1.000000
 
  6 S  1.28731350E-01  1.000000
 
  7 P  3.47094960E+01  0.005330
  7 P  7.95908830E+00  0.035866
  7 P  2.37869720E+00  0.142003
  7 P  8.15400650E-01  0.342031
 
  8 P  2.89537850E-01  1.000000
 
  9 P  1.00847540E-01  1.000000
 
  H (Hydrogen)
  ------------
            Exponent  Coefficients 
       -------------- ---------------------------------------------------------
  1 S  3.40613410E+01  0.006025
  1 S  5.12357460E+00  0.045021
  1 S  1.16466260E+00  0.201897
 
  2 S  3.27230410E-01  1.000000
 
  3 S  1.03072410E-01  1.000000
 
  O (Oxygen)
  ----------
            Exponent  Coefficients 
       -------------- ---------------------------------------------------------
  1 S  1.59026475E+04  0.000515
  1 S  2.38495378E+03  0.003982
  1 S  5.42719572E+02  0.020477
  1 S  1.53404079E+02  0.080262
  1 S  4.95457161E+01  0.237668
 
  2 S  1.73396499E+01  1.000000
 
  3 S  6.33033553E+00  1.000000
 
  4 S  1.69958822E+00  1.000000
 
  5 S  6.89544913E-01  1.000000
 
  6 S  2.39360282E-01  1.000000
 
  7 P  6.32705240E+01  0.006071
  7 P  1.46233123E+01  0.041948
  7 P  4.44895180E+00  0.161569
  7 P  1.52815132E+00  0.356828
 
  8 P  5.29973159E-01  1.000000
 
  9 P  1.75094460E-01  1.000000
 


 Summary of "ao basis" -> "ao basis" (spherical)
 ------------------------------------------------------------------------------
       Tag                 Description            Shells   Functions and Types
 ---------------- ------------------------------  ------  ---------------------
 C                        ahlrichs vtz               9       15   6s3p
 H                        ahlrichs vtz               3        3   3s
 O                        ahlrichs vtz               9       15   6s3p




 Summary of "ao basis" -> "ao basis" (spherical)
 ------------------------------------------------------------------------------
       Tag                 Description            Shells   Functions and Types
 ---------------- ------------------------------  ------  ---------------------
 C                        ahlrichs vtz               9       15   6s3p
 H                        ahlrichs vtz               3        3   3s
 O                        ahlrichs vtz               9       15   6s3p


  Caching 1-el integrals 
 
            General Information
            -------------------
          SCF calculation type: DFT
          Wavefunction type:  spin polarized.
          No. of atoms     :     8
          No. of electrons :    23
           Alpha electrons :    12
            Beta electrons :    11
          Charge           :     2
          Spin multiplicity:     2
          Use of symmetry is: off; symmetry adaption is: off
          Maximum number of iterations: ***
          This is a Direct SCF calculation.
          AO basis - number of functions:    60
                     number of shells:    42
          Convergence on energy requested:  1.00D-08
          Convergence on density requested:  1.00D-07
          Convergence on gradient requested:  1.00D-06
 
              XC Information
              --------------
                        PBE96 Method XC Functional
          PerdewBurkeErnzerhof Exchange Functional  1.000          
            Perdew 1991 LDA Correlation Functional  1.000 local    
           PerdewBurkeErnz. Correlation Functional  1.000 non-local
 
             Grid Information
             ----------------
          Grid used for XC integration:  fine      
          Radial quadrature: Mura-Knowles        
          Angular quadrature: Lebedev. 
          Tag              B.-S. Rad. Rad. Pts. Rad. Cut. Ang. Pts.
          ---              ---------- --------- --------- ---------
          C                   0.70       70          11.0       590
          H                   0.35       60          11.0       590
          O                   0.60       70          10.0       590
          Grid pruning is: on 
          Number of quadrature shells:   510
          Spatial weights used:  Erf1
 
          Convergence Information
          -----------------------
          Convergence aids based upon iterative change in 
          total energy or number of iterations. 
          Levelshifting, if invoked, occurs when the 
          HOMO/LUMO gap drops below (HL_TOL):  1.00D-02
          DIIS, if invoked, will attempt to extrapolate 
          using up to (NFOCK): 10 stored Fock matrices.

                    Damping( 0%)  Levelshifting(0.5)       DIIS
                  --------------- ------------------- ---------------
          dE  on:    start            ASAP                start   
          dE off:    2 iters        *** iters           *** iters 

 
      Screening Tolerance Information
      -------------------------------
          Density screening/tol_rho:  1.00D-12
          AO Gaussian exp screening on grid/accAOfunc:  18
          CD Gaussian exp screening on grid/accCDfunc:  20
          XC Gaussian exp screening on grid/accXCfunc:  20
          Schwarz screening/accCoul:  1.00D-12

      Dispersion Parameters
      ---------------------

           DFT-D3BJ Model   
          s6 scale factor  :        1.000000000000
          s8 scale factor  :        0.787500000000
          a1 parameter     :        0.428900000000
          a2 parameter     :        4.440700000000
              vdW contrib  :       -0.003657650852


 Forcing the number of linearly dependent vectors to be  0
 
      Superposition of Atomic Density Guess
      -------------------------------------
 
 Sum of atomic energies:        -152.62524776
   Time after variat. SCF:      0.2
   Time prior to 1st pass:      0.2

 Grid_pts file          = ./05_CH3CHOH.gridpts.00
 Record size in doubles =  12289        No. of grid_pts per rec  =   3070
 Max. records in memory =      9        Max. recs in file   =  67550051

 Grid integrated density:      24.999998776134
 Requested integration accuracy:   0.10E-06

           Memory utilization after 1st SCF pass: 
           Heap Space remaining (MW):        0.00                  62
          Stack Space remaining (MW):      288.36           288357580

   convergence    iter        energy       DeltaE   RMS-Dens  Diis-err    time
 ---------------- ----- ----------------- --------- --------- ---------  ------
 d= 0,ls=0.0,diis     1   -154.6480619759 -2.31D+02  1.74D-02  9.55D+00     0.3
                                                     1.66D-02  8.02D+00
 d= 0,ls=0.0,diis     2   -153.1187619165  1.53D+00  1.44D-02  1.83D-01     0.4
                                                     1.68D-02  1.82D-01
 d= 0,ls=0.0,diis     3   -151.5909173063  1.53D+00  1.12D-02  2.64D+00     0.5
                                                     1.15D-02  2.27D+00
 d= 0,ls=0.5,diis     4   -153.1804736017 -1.59D+00  1.21D-03  8.81D-02     0.6
                                                     1.07D-03  8.57D-02
 d= 0,ls=0.5,diis     5   -153.2086955094 -2.82D-02  7.03D-04  3.45D-02     0.7
                                                     7.27D-04  3.83D-02
 d= 0,ls=0.5,diis     6   -153.2227246291 -1.40D-02  5.09D-04  1.65D-02     0.8
                                                     6.33D-04  2.07D-02
 d= 0,ls=0.5,diis     7   -153.2317274213 -9.00D-03  2.72D-04  5.08D-03     0.9
                                                     5.60D-04  8.39D-03
 d= 0,ls=0.5,diis     8   -153.2365020517 -4.77D-03  1.10D-04  1.12D-03     1.0
                                                     4.82D-04  3.11D-03
 d= 0,ls=0.5,diis     9   -153.2389536847 -2.45D-03  2.19D-04  6.66D-05     1.1
                                                     3.51D-04  1.05D-03
 d= 0,ls=0.5,diis    10   -153.2399886106 -1.03D-03  1.62D-04  9.34D-05     1.3
                                                     2.93D-04  8.47D-04
 d= 0,ls=0.5,diis    11   -153.2407502911 -7.62D-04  2.89D-04  9.82D-05     1.4
                                                     2.43D-04  6.77D-04
 d= 0,ls=0.5,diis    12   -153.2409133353 -1.63D-04  1.42D-04  6.51D-04     1.5
                                                     1.85D-04  1.26D-03
 d= 0,ls=0.5,diis    13   -153.2411835888 -2.70D-04  1.21D-04  8.26D-04     1.6
                                                     1.57D-04  1.40D-03
 d= 0,ls=0.5,diis    14   -153.2413465660 -1.63D-04  1.55D-04  1.04D-03     1.7
                                                     1.38D-04  1.58D-03
 d= 0,ls=0.5,diis    15   -153.2411961490  1.50D-04  8.75D-05  1.71D-03     1.8
                                                     1.10D-04  2.24D-03
 d= 0,ls=0.5,diis    16   -153.2411924717  3.68D-06  4.34D-05  2.00D-03     1.9
                                                     9.69D-05  2.53D-03
 d= 0,ls=0.5,diis    17   -153.2413350035 -1.43D-04  5.02D-05  1.97D-03     2.0
                                                     8.68D-05  2.49D-03
 d= 0,ls=0.5,diis    18   -153.2414300821 -9.51D-05  3.73D-05  1.99D-03     2.1
                                                     7.94D-05  2.48D-03
 d= 0,ls=0.5,diis    19   -153.2415267733 -9.67D-05  2.47D-05  2.00D-03     2.2
                                                     7.34D-05  2.46D-03
 d= 0,ls=0.5,diis    20   -153.2416460577 -1.19D-04  3.52D-05  1.95D-03     2.3
                                                     8.75D-05  2.39D-03
 d= 0,ls=0.5,diis    21   -153.2419875220 -3.41D-04  4.47D-05  1.49D-03     2.4
                                                     9.71D-05  1.88D-03
 d= 0,ls=0.5,diis    22   -153.2423390936 -3.52D-04  1.60D-05  1.07D-03     2.5
                                                     7.67D-05  1.40D-03
 d= 0,ls=0.5,diis    23   -153.2425119299 -1.73D-04  2.60D-05  9.40D-04     2.6
                                                     8.33D-05  1.22D-03
 d= 0,ls=0.5,diis    24   -153.2427313396 -2.19D-04  4.65D-05  6.80D-04     2.7
                                                     6.37D-05  9.05D-04
 d= 0,ls=0.5,diis    25   -153.2427574806 -2.61D-05  1.54D-05  7.65D-04     2.9
                                                     5.93D-05  9.52D-04
 d= 0,ls=0.5,diis    26   -153.2428515579 -9.41D-05  1.61D-05  7.04D-04     3.0
                                                     5.34D-05  8.68D-04
 d= 0,ls=0.5,diis    27   -153.2429201129 -6.86D-05  1.85D-05  6.67D-04     3.1
                                                     4.85D-05  8.14D-04
 d= 0,ls=0.5,diis    28   -153.2429676299 -4.75D-05  1.14D-05  6.52D-04     3.2
                                                     4.57D-05  7.83D-04
 d= 0,ls=0.5,diis    29   -153.2430263921 -5.88D-05  1.34D-05  6.06D-04     3.3
                                                     4.19D-05  7.26D-04
 d= 0,ls=0.5,diis    30   -153.2430720096 -4.56D-05  1.50D-05  5.78D-04     3.4
                                                     3.85D-05  6.90D-04
 d= 0,ls=0.5,diis    31   -153.2431039049 -3.19D-05  1.37D-05  5.74D-04     3.5
                                                     3.52D-05  6.77D-04
 d= 0,ls=0.5,diis    32   -153.2431322058 -2.83D-05  2.65D-05  5.63D-04     3.6
                                                     3.28D-05  6.59D-04
 d= 0,ls=0.5,diis    33   -153.2431312098  9.96D-07  3.05D-05  6.07D-04     3.7
                                                     2.93D-05  6.94D-04
 d= 0,ls=0.5,diis    34   -153.2431166078  1.46D-05  1.72D-05  6.60D-04     3.8
                                                     2.46D-05  7.39D-04
 d= 0,ls=0.5,diis    35   -153.2431107847  5.82D-06  8.41D-06  6.87D-04     3.9
                                                     2.20D-05  7.66D-04
 d= 0,ls=0.5,diis    36   -153.2431203703 -9.59D-06  5.92D-06  6.88D-04     4.0
                                                     2.09D-05  7.69D-04
 d= 0,ls=0.5,diis    37   -153.2431353183 -1.49D-05  5.43D-06  6.75D-04     4.1
                                                     1.83D-05  7.58D-04
 d= 0,ls=0.5,diis    38   -153.2431438663 -8.55D-06  2.23D-05  6.74D-04     4.2
                                                     2.67D-05  7.55D-04
 d= 0,ls=0.5,diis    39   -153.2431993877 -5.55D-05  6.14D-05  5.66D-04     4.3
                                                     6.13D-05  6.37D-04
 d= 0,ls=0.5,diis    40   -153.2433563748 -1.57D-04  2.25D-05  3.12D-04     4.4
                                                     3.91D-05  3.87D-04
 d= 0,ls=0.5,diis    41   -153.2434185468 -6.22D-05  3.01D-05  2.49D-04     4.6
                                                     4.02D-05  3.06D-04
 d= 0,ls=0.5,diis    42   -153.2434860066 -6.75D-05  1.32D-05  1.55D-04     4.7
                                                     3.49D-05  2.05D-04
 d= 0,ls=0.5,diis    43   -153.2435294285 -4.34D-05  1.13D-05  1.07D-04     4.8
                                                     2.71D-05  1.48D-04
 d= 0,ls=0.5,diis    44   -153.2435462956 -1.69D-05  4.59D-06  1.03D-04     4.9
                                                     2.53D-05  1.39D-04
 d= 0,ls=0.5,diis    45   -153.2435661823 -1.99D-05  7.73D-06  8.50D-05     5.0
                                                     2.17D-05  1.17D-04
 d= 0,ls=0.5,diis    46   -153.2435777954 -1.16D-05  9.94D-06  8.00D-05     5.1
                                                     1.91D-05  1.08D-04
 d= 0,ls=0.5,diis    47   -153.2435849315 -7.14D-06  4.11D-06  8.14D-05     5.2
                                                     1.84D-05  1.05D-04
 d= 0,ls=0.5,diis    48   -153.2435956660 -1.07D-05  7.69D-06  7.28D-05     5.3
                                                     1.63D-05  9.43D-05
 d= 0,ls=0.5,diis    49   -153.2436014908 -5.82D-06  8.05D-06  7.12D-05     5.4
                                                     1.50D-05  8.99D-05
 d= 0,ls=0.5,diis    50   -153.2436055492 -4.06D-06  7.15D-06  7.17D-05     5.5
                                                     1.32D-05  8.79D-05
 d= 0,ls=0.5,diis    51   -153.2436084565 -2.91D-06  6.03D-06  7.31D-05     5.6
                                                     1.20D-05  8.73D-05
 d= 0,ls=0.5,diis    52   -153.2436109007 -2.44D-06  5.23D-06  7.37D-05     5.7
                                                     1.10D-05  8.70D-05
 d= 0,ls=0.5,diis    53   -153.2436134548 -2.55D-06  3.46D-06  7.31D-05     5.8
                                                     9.82D-06  8.50D-05
 d= 0,ls=0.5,diis    54   -153.2436161145 -2.66D-06  2.88D-06  7.14D-05     5.9
                                                     1.03D-05  8.28D-05
 d= 0,ls=0.5,diis    55   -153.2436211555 -5.04D-06  2.36D-06  6.53D-05     6.0
                                                     1.01D-05  7.58D-05
 d= 0,ls=0.5,diis    56   -153.2436260659 -4.91D-06  2.06D-06  6.04D-05     6.2
                                                     1.02D-05  6.93D-05
 d= 0,ls=0.5,diis    57   -153.2436314087 -5.34D-06  4.67D-06  5.44D-05     6.3
                                                     9.62D-06  6.24D-05
 d= 0,ls=0.5,diis    58   -153.2436342741 -2.87D-06  3.33D-06  5.30D-05     6.4
                                                     9.11D-06  5.99D-05
 d= 0,ls=0.5,diis    59   -153.2436376147 -3.34D-06  2.41D-06  5.00D-05     6.5
                                                     8.36D-06  5.59D-05
 d= 0,ls=0.5,diis    60   -153.2436401527 -2.54D-06  2.22D-06  4.84D-05     6.6
                                                     7.79D-06  5.35D-05
 d= 0,ls=0.5,diis    61   -153.2436427049 -2.55D-06  4.77D-06  4.56D-05     6.7
                                                     6.76D-06  5.04D-05
 d= 0,ls=0.5,diis    62   -153.2436426956  9.26D-09  2.98D-06  4.74D-05     6.8
                                                     6.13D-06  5.15D-05
 d= 0,ls=0.5,diis    63   -153.2436436691 -9.74D-07  4.70D-06  4.68D-05     6.9
                                                     7.21D-06  5.05D-05
 d= 0,ls=0.5,diis    64   -153.2436477038 -4.03D-06  2.80D-06  4.02D-05     7.0
                                                     7.00D-06  4.40D-05
 d= 0,ls=0.5,diis    65   -153.2436508400 -3.14D-06  4.54D-06  3.58D-05     7.1
                                                     8.14D-06  3.93D-05
 d= 0,ls=0.5,diis    66   -153.2436556527 -4.81D-06  7.46D-06  2.87D-05     7.2
                                                     9.49D-06  3.23D-05
 d= 0,ls=0.5,diis    67   -153.2436610931 -5.44D-06  3.83D-06  2.09D-05     7.3
                                                     8.21D-06  2.48D-05
 d= 0,ls=0.5,diis    68   -153.2436647451 -3.65D-06  2.12D-06  1.63D-05     7.4
                                                     7.36D-06  2.00D-05
 d= 0,ls=0.5,diis    69   -153.2436673282 -2.58D-06  5.53D-06  1.34D-05     7.5
                                                     8.96D-06  1.68D-05
 d= 0,ls=0.5,diis    70   -153.2436706515 -3.32D-06  2.02D-06  9.27D-06     7.6
                                                     7.09D-06  1.24D-05
 d= 0,ls=0.5,diis    71   -153.2436723245 -1.67D-06  2.18D-06  7.93D-06     7.7
                                                     7.31D-06  1.06D-05
 d= 0,ls=0.5,diis    72   -153.2436741821 -1.86D-06  1.87D-06  5.99D-06     7.9
                                                     6.98D-06  8.14D-06
 d= 0,ls=0.5,diis    73   -153.2436757924 -1.61D-06  1.07D-06  4.22D-06     8.0
                                                     6.54D-06  5.90D-06
 d= 0,ls=0.5,diis    74   -153.2436770313 -1.24D-06  9.80D-07  3.05D-06     8.1
                                                     5.92D-06  4.39D-06
 d= 0,ls=0.5,diis    75   -153.2436778842 -8.53D-07  2.61D-06  2.45D-06     8.2
                                                     4.99D-06  3.52D-06
 d= 0,ls=0.5,diis    76   -153.2436782440 -3.60D-07  2.18D-06  2.54D-06     8.3
                                                     4.40D-06  3.45D-06
 d= 0,ls=0.5,diis    77   -153.2436785351 -2.91D-07  3.41D-06  2.57D-06     8.4
                                                     3.83D-06  3.37D-06
 d= 0,ls=0.5,diis    78   -153.2436785509 -1.58D-08  2.00D-06  3.00D-06     8.5
                                                     3.39D-06  3.69D-06
 d= 0,ls=0.5,diis    79   -153.2436786579 -1.07D-07  1.68D-06  3.14D-06     8.6
                                                     3.06D-06  3.79D-06
 d= 0,ls=0.5,diis    80   -153.2436787549 -9.70D-08  7.60D-07  3.25D-06     8.7
                                                     2.91D-06  3.85D-06
 d= 0,ls=0.5,diis    81   -153.2436789939 -2.39D-07  5.68D-07  3.04D-06     8.8
                                                     2.68D-06  3.61D-06
 d= 0,ls=0.5,diis    82   -153.2436792132 -2.19D-07  8.67D-07  2.85D-06     8.9
                                                     2.45D-06  3.38D-06
 d= 0,ls=0.5,diis    83   -153.2436793640 -1.51D-07  1.00D-06  2.78D-06     9.0
                                                     2.28D-06  3.26D-06
 d= 0,ls=0.5,diis    84   -153.2436794629 -9.89D-08  1.14D-06  2.78D-06     9.1
                                                     2.52D-06  3.22D-06
 d= 0,ls=0.5,diis    85   -153.2436797301 -2.67D-07  6.39D-07  2.51D-06     9.2
                                                     2.27D-06  2.91D-06
 d= 0,ls=0.5,diis    86   -153.2436798794 -1.49D-07  2.09D-06  2.36D-06     9.3
                                                     3.26D-06  2.74D-06
 d= 0,ls=0.5,diis    87   -153.2436803478 -4.68D-07  8.32D-07  1.65D-06     9.5
                                                     2.78D-06  2.00D-06
 d= 0,ls=0.5,diis    88   -153.2436806482 -3.00D-07  1.13D-06  1.29D-06     9.6
                                                     2.12D-06  1.61D-06
 d= 0,ls=0.5,diis    89   -153.2436807090 -6.08D-08  4.47D-07  1.34D-06     9.7
                                                     1.96D-06  1.62D-06
 d= 0,ls=0.5,diis    90   -153.2436808290 -1.20D-07  1.10D-06  1.25D-06     9.8
                                                     1.69D-06  1.51D-06
 d= 0,ls=0.5,diis    91   -153.2436808548 -2.57D-08  8.46D-07  1.30D-06     9.9
                                                     1.51D-06  1.53D-06
 d= 0,ls=0.5,diis    92   -153.2436808805 -2.57D-08  4.10D-07  1.30D-06    10.0
                                                     1.42D-06  1.53D-06
 d= 0,ls=0.5,diis    93   -153.2436809656 -8.52D-08  6.46D-07  1.20D-06    10.1
                                                     1.25D-06  1.42D-06
 d= 0,ls=0.5,diis    94   -153.2436809834 -1.77D-08  4.16D-07  1.22D-06    10.2
                                                     1.11D-06  1.43D-06
 d= 0,ls=0.5,diis    95   -153.2436810160 -3.26D-08  2.73D-07  1.20D-06    10.3
                                                     1.16D-06  1.40D-06
 d= 0,ls=0.5,diis    96   -153.2436810947 -7.87D-08  3.92D-07  1.11D-06    10.4
                                                     1.07D-06  1.30D-06
 d= 0,ls=0.5,diis    97   -153.2436811509 -5.62D-08  1.61D-06  1.05D-06    10.5
                                                     1.05D-06  1.23D-06
 d= 0,ls=0.5,diis    98   -153.2436810827  6.81D-08  1.00D-06  1.23D-06    10.6
                                                     8.40D-07  1.35D-06
 d= 0,ls=0.5,diis    99   -153.2436810357  4.70D-08  1.87D-06  1.34D-06    10.7
                                                     1.65D-06  1.44D-06
 d= 0,ls=0.5,diis   100   -153.2436812519 -2.16D-07  1.50D-06  9.69D-07    10.8
                                                     1.68D-06  1.10D-06
 d= 0,ls=0.5,diis   101   -153.2436814355 -1.84D-07  7.99D-07  6.95D-07    10.9
                                                     1.46D-06  8.29D-07
 d= 0,ls=0.5,diis   102   -153.2436815605 -1.25D-07  9.42D-07  5.31D-07    11.0
                                                     1.55D-06  6.47D-07
 d= 0,ls=0.5,diis   103   -153.2436816760 -1.15D-07  3.52D-07  3.87D-07    11.2
                                                     1.26D-06  4.87D-07
 d= 0,ls=0.5,diis   104   -153.2436817407 -6.47D-08  6.76D-07  3.23D-07    11.3
                                                     1.42D-06  4.04D-07
 d= 0,ls=0.5,diis   105   -153.2436818225 -8.18D-08  2.82D-07  2.20D-07    11.4
                                                     1.30D-06  2.87D-07
 d= 0,ls=0.5,diis   106   -153.2436818794 -5.69D-08  3.05D-07  1.62D-07    11.5
                                                     1.12D-06  2.15D-07
 d= 0,ls=0.5,diis   107   -153.2436819141 -3.47D-08  4.53D-07  1.35D-07    11.6
                                                     9.47D-07  1.80D-07
 d= 0,ls=0.5,diis   108   -153.2436819311 -1.70D-08  3.25D-07  1.31D-07    11.7
                                                     8.74D-07  1.70D-07
 d= 0,ls=0.5,diis   109   -153.2436819486 -1.74D-08  2.12D-07  1.20D-07    11.8
                                                     7.88D-07  1.55D-07
 d= 0,ls=0.5,diis   110   -153.2436819644 -1.58D-08  5.31D-07  1.11D-07    11.9
                                                     6.81D-07  1.42D-07
 d= 0,ls=0.5,diis   111   -153.2436819665 -2.15D-09  2.68D-07  1.21D-07    12.0
                                                     6.07D-07  1.50D-07
 d= 0,ls=0.5,diis   112   -153.2436819729 -6.39D-09  2.49D-07  1.20D-07    12.1
                                                     5.57D-07  1.48D-07
 d= 0,ls=0.5,diis   113   -153.2436819787 -5.77D-09  2.57D-07  1.21D-07    12.2
                                                     4.95D-07  1.46D-07
 d= 0,ls=0.5,diis   114   -153.2436819820 -3.29D-09  1.28D-07  1.23D-07    12.3
                                                     4.82D-07  1.47D-07
 d= 0,ls=0.5,diis   115   -153.2436819897 -7.78D-09  5.25D-07  1.15D-07    12.4
                                                     4.32D-07  1.38D-07
 d= 0,ls=0.5,diis   116   -153.2436819855  4.25D-09  2.59D-07  1.30D-07    12.5
                                                     3.57D-07  1.49D-07
 d= 0,ls=0.5,diis   117   -153.2436819858 -2.80D-10  1.15D-07  1.34D-07    12.6
                                                     3.57D-07  1.52D-07
 d= 0,ls=0.5,diis   118   -153.2436819908 -4.99D-09  4.67D-07  1.29D-07    12.8
                                                     5.93D-07  1.48D-07
 d= 0,ls=0.5,diis   119   -153.2436820099 -1.91D-08  7.13D-07  9.72D-08    12.9
                                                     9.00D-07  1.10D-07
 d= 0,ls=0.5,diis   120   -153.2436820396 -2.97D-08  2.20D-07  5.42D-08    13.0
                                                     5.16D-07  6.65D-08
 d= 0,ls=0.5,diis   121   -153.2436820470 -7.36D-09  1.90D-07  4.95D-08    13.1
                                                     4.91D-07  6.05D-08
 d= 0,ls=0.5,diis   122   -153.2436820534 -6.46D-09  2.42D-07  4.43D-08    13.2
                                                     3.87D-07  5.49D-08
 d= 0,ls=0.5,diis   123   -153.2436820548 -1.32D-09  7.47D-08  4.68D-08    13.3
                                                     3.64D-07  5.62D-08
 d= 0,ls=0.5,diis   124   -153.2436820594 -4.60D-09  8.32D-08  4.20D-08    13.4
                                                     3.39D-07  5.10D-08
 d= 0,ls=0.5,diis   125   -153.2436820637 -4.34D-09  8.23D-08  3.74D-08    13.5
                                                     3.62D-07  4.63D-08
 d= 0,ls=0.5,diis   126   -153.2436820693 -5.62D-09  1.14D-07  3.07D-08    13.6
                                                     3.55D-07  3.86D-08
 d= 0,ls=0.5,diis   127   -153.2436820747 -5.37D-09  1.42D-07  2.45D-08    13.7
                                                     3.69D-07  3.16D-08
 d= 0,ls=0.5,diis   128   -153.2436820802 -5.46D-09  8.52D-08  1.81D-08    13.8
                                                     3.18D-07  2.40D-08
 d= 0,ls=0.5,diis   129   -153.2436820832 -3.02D-09  1.05D-07  1.58D-08    13.9
                                                     2.82D-07  2.05D-08
 d= 0,ls=0.5,diis   130   -153.2436820852 -2.00D-09  1.22D-07  1.50D-08    14.0
                                                     2.51D-07  1.88D-08
 d= 0,ls=0.5,diis   131   -153.2436820864 -1.20D-09  9.08D-08  1.49D-08    14.1
                                                     2.28D-07  1.80D-08
 d= 0,ls=0.5,diis   132   -153.2436820876 -1.18D-09  8.14D-08  1.44D-08    14.2
                                                     2.10D-07  1.72D-08
 d= 0,ls=0.5,diis   133   -153.2436820886 -1.04D-09  7.48D-08  1.39D-08    14.4
                                                     1.98D-07  1.63D-08
 d= 0,ls=0.5,diis   134   -153.2436820896 -9.61D-10  6.96D-08  1.35D-08    14.5
                                                     1.83D-07  1.55D-08
 d= 0,ls=0.5,diis   135   -153.2436820904 -7.94D-10  5.19D-08  1.31D-08    14.6
                                                     1.72D-07  1.49D-08
 d= 0,ls=0.5,diis   136   -153.2436820912 -8.54D-10  2.27D-08  1.24D-08    14.7
                                                     1.65D-07  1.40D-08
 d= 0,ls=0.5,diis   137   -153.2436820922 -1.00D-09  8.96D-08  1.15D-08    14.8
                                                     1.52D-07  1.29D-08
 d= 0,ls=0.5,diis   138   -153.2436820925 -3.26D-10  1.88D-07  1.16D-08    14.9
                                                     1.40D-07  1.28D-08
 d= 0,ls=0.5,diis   139   -153.2436820916  9.60D-10  7.12D-08  1.38D-08    15.0
                                                     1.07D-07  1.47D-08
 d= 0,ls=0.5,diis   140   -153.2436820914  1.46D-10  1.05D-07  1.44D-08    15.1
                                                     1.12D-07  1.52D-08
 d= 0,ls=0.5,diis   141   -153.2436820924 -9.33D-10  4.52D-08  1.29D-08    15.2
                                                     1.06D-07  1.40D-08
 d= 0,ls=0.5,diis   142   -153.2436820931 -7.36D-10  6.92D-08  1.18D-08    15.3
                                                     1.19D-07  1.30D-08
 d= 0,ls=0.5,diis   143   -153.2436820943 -1.17D-09  1.29D-07  1.00D-08    15.4
                                                     1.73D-07  1.12D-08
 d= 0,ls=0.5,diis   144   -153.2436820960 -1.75D-09  1.04D-07  7.46D-09    15.5
                                                     1.69D-07  8.78D-09
 d= 0,ls=0.5,diis   145   -153.2436820975 -1.51D-09  7.91D-08  5.33D-09    15.6
                                                     1.61D-07  6.57D-09
 d= 0,ls=0.5,diis   146   -153.2436820987 -1.17D-09  1.06D-07  3.89D-09    15.7
                                                     1.77D-07  4.99D-09
 d= 0,ls=0.5,diis   147   -153.2436820998 -1.14D-09  3.51D-08  2.46D-09    15.8
                                                     1.41D-07  3.43D-09
 d= 0,ls=0.5,diis   148   -153.2436821004 -5.75D-10  6.05D-08  1.99D-09    15.9
                                                     1.19D-07  2.80D-09
 d= 0,ls=0.5,diis   149   -153.2436821007 -2.47D-10  3.77D-08  2.00D-09    16.1
                                                     1.06D-07  2.69D-09
 d= 0,ls=0.5,diis   150   -153.2436821009 -2.50D-10  4.97D-08  1.87D-09    16.2
                                                     1.18D-07  2.50D-09
 d= 0,ls=0.5,diis   151   -153.2436821014 -4.69D-10  4.63D-08  1.32D-09    16.3
                                                     9.78D-08  1.88D-09


         Total DFT energy =     -153.243682101550
      One electron energy =     -345.135503796126
           Coulomb energy =      135.914750559351
          Exchange energy =      -19.602774601861
       Correlation energy =       -0.742340574523
 Nuclear repulsion energy =       76.325843962461

    Dispersion correction =       -0.003657650852

 Numeric. integr. density =       22.999999317844

     Total iterative time =     16.2s


 
                    DFT Final Alpha Molecular Orbital Analysis
                    ------------------------------------------
 
 Vector    1  Occ=1.000000D+00  E=-1.944672D+01
              MO Center= -7.0D-01, -5.1D-01, -8.2D-01, r^2= 1.5D-02
   Bfn.  Coefficient  Atom+Function         Bfn.  Coefficient  Atom+Function  
  ----- ------------  ---------------      ----- ------------  ---------------
    38      0.424504  5 O  s                 39      0.366353  5 O  s          
    37      0.299481  5 O  s                 40      0.055328  5 O  s          
 
 Vector    2  Occ=1.000000D+00  E=-1.060624D+01
              MO Center= -3.4D-01,  2.7D-02,  3.0D-01, r^2= 2.8D-02
   Bfn.  Coefficient  Atom+Function         Bfn.  Coefficient  Atom+Function  
  ----- ------------  ---------------      ----- ------------  ---------------
     2      0.424205  1 C  s                  3      0.359793  1 C  s          
     1      0.308770  1 C  s                  4      0.056794  1 C  s          
 
 Vector    3  Occ=1.000000D+00  E=-1.044329D+01
              MO Center=  1.0D+00,  4.6D-01,  4.8D-01, r^2= 2.8D-02
   Bfn.  Coefficient  Atom+Function         Bfn.  Coefficient  Atom+Function  
  ----- ------------  ---------------      ----- ------------  ---------------
    17      0.424056  2 C  s                 18      0.359542  2 C  s          
    16      0.308729  2 C  s                 19      0.058009  2 C  s          
 
 Vector    4  Occ=1.000000D+00  E=-1.619232D+00
              MO Center= -7.2D-01, -4.1D-01, -5.7D-01, r^2= 5.2D-01
   Bfn.  Coefficient  Atom+Function         Bfn.  Coefficient  Atom+Function  
  ----- ------------  ---------------      ----- ------------  ---------------
    41      0.541602  5 O  s                 42      0.250207  5 O  s          
     5      0.193122  1 C  s                 39     -0.145342  5 O  s          
    38     -0.120932  5 O  s                 40      0.115324  5 O  s          
     9     -0.100106  1 C  pz                45      0.095996  5 O  pz         
    48      0.093854  5 O  pz                58      0.068770  8 H  s          
 
 Vector    5  Occ=1.000000D+00  E=-1.274622D+00
              MO Center=  1.2D-01,  1.0D-01,  1.8D-01, r^2= 1.6D+00
   Bfn.  Coefficient  Atom+Function         Bfn.  Coefficient  Atom+Function  
  ----- ------------  ---------------      ----- ------------  ---------------
     5      0.380377  1 C  s                 20      0.371664  2 C  s          
    41     -0.166353  5 O  s                 43      0.118850  5 O  px         
    42     -0.114628  5 O  s                 46      0.105618  5 O  px         
     3     -0.103751  1 C  s                 18     -0.099341  2 C  s          
    21      0.097550  2 C  s                  7      0.091440  1 C  px         
 
 Vector    6  Occ=1.000000D+00  E=-1.145974D+00
              MO Center= -1.8D-01, -1.5D-01, -2.6D-01, r^2= 2.3D+00
   Bfn.  Coefficient  Atom+Function         Bfn.  Coefficient  Atom+Function  
  ----- ------------  ---------------      ----- ------------  ---------------
    20      0.354670  2 C  s                 45     -0.208499  5 O  pz         
     5     -0.206277  1 C  s                 43     -0.198729  5 O  px         
    46     -0.174993  5 O  px                48     -0.162722  5 O  pz         
    44     -0.134301  5 O  py                 9      0.120945  1 C  pz         
    58      0.119576  8 H  s                  7      0.115926  1 C  px         
 
 Vector    7  Occ=1.000000D+00  E=-1.100904D+00
              MO Center= -5.4D-01, -4.0D-02,  2.7D-01, r^2= 1.5D+00
   Bfn.  Coefficient  Atom+Function         Bfn.  Coefficient  Atom+Function  
  ----- ------------  ---------------      ----- ------------  ---------------
     5      0.253198  1 C  s                  9      0.217617  1 C  pz         
    43     -0.210381  5 O  px                46     -0.178367  5 O  px         
    12      0.174978  1 C  pz                10     -0.170051  1 C  px         
     7     -0.162531  1 C  px                52      0.159914  6 H  s          
    53      0.144296  6 H  s                 41     -0.126237  5 O  s          
 
 Vector    8  Occ=1.000000D+00  E=-9.794184D-01
              MO Center=  3.4D-01,  4.0D-02, -1.3D-01, r^2= 2.1D+00
   Bfn.  Coefficient  Atom+Function         Bfn.  Coefficient  Atom+Function  
  ----- ------------  ---------------      ----- ------------  ---------------
    45      0.256706  5 O  pz                22      0.231620  2 C  px         
    48      0.214343  5 O  pz                20      0.211180  2 C  s          
    10     -0.194573  1 C  px                21      0.194788  2 C  s          
     7     -0.189098  1 C  px                43     -0.143142  5 O  px         
     5     -0.140355  1 C  s                 25      0.133562  2 C  px         
 
 Vector    9  Occ=1.000000D+00  E=-9.599097D-01
              MO Center= -3.7D-01, -2.2D-01, -3.2D-01, r^2= 1.5D+00
   Bfn.  Coefficient  Atom+Function         Bfn.  Coefficient  Atom+Function  
  ----- ------------  ---------------      ----- ------------  ---------------
    44      0.340269  5 O  py                47      0.297150  5 O  py         
     8      0.223440  1 C  py                11      0.204578  1 C  py         
    45     -0.131842  5 O  pz                50      0.126144  5 O  py         
    23      0.119519  2 C  py                48     -0.115139  5 O  pz         
    26      0.106526  2 C  py                43     -0.091549  5 O  px         
 
 Vector   10  Occ=1.000000D+00  E=-9.006050D-01
              MO Center= -9.2D-02, -5.5D-02, -7.9D-02, r^2= 2.2D+00
   Bfn.  Coefficient  Atom+Function         Bfn.  Coefficient  Atom+Function  
  ----- ------------  ---------------      ----- ------------  ---------------
    43      0.259388  5 O  px                46      0.231418  5 O  px         
     7     -0.217040  1 C  px                45     -0.189132  5 O  pz         
    22      0.187192  2 C  px                53      0.163654  6 H  s          
    48     -0.156824  5 O  pz                25      0.155519  2 C  px         
    41      0.150469  5 O  s                 10     -0.147169  1 C  px         
 
 Vector   11  Occ=1.000000D+00  E=-8.959486D-01
              MO Center=  9.5D-01,  3.9D-01,  3.5D-01, r^2= 1.7D+00
   Bfn.  Coefficient  Atom+Function         Bfn.  Coefficient  Atom+Function  
  ----- ------------  ---------------      ----- ------------  ---------------
    24      0.307939  2 C  pz                27      0.294851  2 C  pz         
    56     -0.201146  7 H  s                 55     -0.168158  7 H  s          
    53     -0.128178  6 H  s                 45      0.119099  5 O  pz         
    48      0.117396  5 O  pz                23      0.096537  2 C  py         
    32      0.094285  3 H  s                 35      0.094452  4 H  s          
 
 Vector   12  Occ=1.000000D+00  E=-8.672026D-01
              MO Center=  6.8D-01,  3.1D-01,  3.4D-01, r^2= 2.2D+00
   Bfn.  Coefficient  Atom+Function         Bfn.  Coefficient  Atom+Function  
  ----- ------------  ---------------      ----- ------------  ---------------
    23      0.287336  2 C  py                26      0.284259  2 C  py         
    44     -0.229651  5 O  py                47     -0.201183  5 O  py         
    32     -0.145729  3 H  s                 35      0.145644  4 H  s          
    31     -0.127316  3 H  s                 34      0.127225  4 H  s          
    50     -0.116125  5 O  py                24     -0.111556  2 C  pz         
 
 Vector   13  Occ=0.000000D+00  E=-6.627693D-01
              MO Center= -2.0D-01,  2.2D-02,  1.9D-01, r^2= 1.7D+00
   Bfn.  Coefficient  Atom+Function         Bfn.  Coefficient  Atom+Function  
  ----- ------------  ---------------      ----- ------------  ---------------
    11      0.438525  1 C  py                 8      0.408076  1 C  py         
    44     -0.240693  5 O  py                14      0.212105  1 C  py         
    47     -0.210902  5 O  py                50     -0.188120  5 O  py         
    12     -0.170053  1 C  pz                 9     -0.158244  1 C  pz         
    32      0.135486  3 H  s                 35     -0.135469  4 H  s          
 
 Vector   14  Occ=0.000000D+00  E=-4.639128D-01
              MO Center= -1.4D+00, -5.5D-01, -4.7D-01, r^2= 2.8D+00
   Bfn.  Coefficient  Atom+Function         Bfn.  Coefficient  Atom+Function  
  ----- ------------  ---------------      ----- ------------  ---------------
    42      0.811803  5 O  s                 60     -0.583558  8 H  s          
    59     -0.531953  8 H  s                 13      0.339923  1 C  px         
    12      0.329841  1 C  pz                41      0.303352  5 O  s          
    21     -0.267185  2 C  s                 49     -0.219214  5 O  px         
     6      0.202150  1 C  s                 46     -0.188360  5 O  px         
 
 Vector   15  Occ=0.000000D+00  E=-4.027958D-01
              MO Center= -8.6D-01,  1.3D-01,  9.2D-01, r^2= 2.5D+00
   Bfn.  Coefficient  Atom+Function         Bfn.  Coefficient  Atom+Function  
  ----- ------------  ---------------      ----- ------------  ---------------
     6      1.859546  1 C  s                 54     -1.115227  6 H  s          
     5      0.713753  1 C  s                 42     -0.589635  5 O  s          
    53     -0.498938  6 H  s                 28      0.404944  2 C  px         
    57     -0.319488  7 H  s                 51     -0.310860  5 O  pz         
    21     -0.251427  2 C  s                 10     -0.239388  1 C  px         
 
 Vector   16  Occ=0.000000D+00  E=-3.672108D-01
              MO Center=  7.2D-01,  9.4D-02, -2.6D-01, r^2= 4.2D+00
   Bfn.  Coefficient  Atom+Function         Bfn.  Coefficient  Atom+Function  
  ----- ------------  ---------------      ----- ------------  ---------------
    57      1.359406  7 H  s                 21     -1.173166  2 C  s          
    30      0.523837  2 C  pz                60      0.512719  8 H  s          
    56      0.502819  7 H  s                 20     -0.434472  2 C  s          
    12      0.358284  1 C  pz                28     -0.325869  2 C  px         
    13      0.295776  1 C  px                27      0.287950  2 C  pz         
 
 Vector   17  Occ=0.000000D+00  E=-3.575638D-01
              MO Center=  5.5D-01,  3.5D-01,  5.2D-01, r^2= 5.0D+00
   Bfn.  Coefficient  Atom+Function         Bfn.  Coefficient  Atom+Function  
  ----- ------------  ---------------      ----- ------------  ---------------
    21      1.376964  2 C  s                 33     -0.944269  3 H  s          
    36     -0.944434  4 H  s                  6     -0.593271  1 C  s          
    60      0.498023  8 H  s                 30      0.420938  2 C  pz         
    20      0.371142  2 C  s                 28      0.347309  2 C  px         
    49      0.315222  5 O  px                15      0.311096  1 C  pz         
 
 Vector   18  Occ=0.000000D+00  E=-3.292121D-01
              MO Center=  9.9D-01,  6.7D-01,  1.0D+00, r^2= 3.4D+00
   Bfn.  Coefficient  Atom+Function         Bfn.  Coefficient  Atom+Function  
  ----- ------------  ---------------      ----- ------------  ---------------
    33      1.436178  3 H  s                 36     -1.436097  4 H  s          
    29      1.203136  2 C  py                14     -0.591437  1 C  py         
    26      0.473550  2 C  py                30     -0.466483  2 C  pz         
    32      0.426553  3 H  s                 35     -0.426565  4 H  s          
    28     -0.323984  2 C  px                23      0.275316  2 C  py         
 
 Vector   19  Occ=0.000000D+00  E=-3.097089D-01
              MO Center=  6.5D-01,  3.4D-01,  4.3D-01, r^2= 3.9D+00
   Bfn.  Coefficient  Atom+Function         Bfn.  Coefficient  Atom+Function  
  ----- ------------  ---------------      ----- ------------  ---------------
    21      2.041820  2 C  s                  6     -1.653850  1 C  s          
    28     -1.451850  2 C  px                13     -1.440286  1 C  px         
    10     -0.657234  1 C  px                57      0.624130  7 H  s          
    25     -0.592690  2 C  px                14     -0.567517  1 C  py         
    15     -0.465357  1 C  pz                54     -0.442606  6 H  s          
 
 Vector   20  Occ=0.000000D+00  E=-2.599513D-01
              MO Center=  3.7D-01,  1.4D-01,  1.0D-01, r^2= 5.2D+00
   Bfn.  Coefficient  Atom+Function         Bfn.  Coefficient  Atom+Function  
  ----- ------------  ---------------      ----- ------------  ---------------
    54     -1.141754  6 H  s                 15      1.113337  1 C  pz         
    57     -1.096393  7 H  s                 30     -0.836542  2 C  pz         
     6     -0.814081  1 C  s                 60      0.703330  8 H  s          
    33      0.669493  3 H  s                 36      0.669687  4 H  s          
    42      0.635986  5 O  s                 28     -0.549744  2 C  px         
 
 Vector   21  Occ=0.000000D+00  E=-2.347739D-01
              MO Center=  9.3D-02,  5.1D-02,  6.7D-02, r^2= 4.3D+00
   Bfn.  Coefficient  Atom+Function         Bfn.  Coefficient  Atom+Function  
  ----- ------------  ---------------      ----- ------------  ---------------
    29      0.872340  2 C  py                14      0.751232  1 C  py         
    33      0.514938  3 H  s                 36     -0.514953  4 H  s          
    11     -0.485625  1 C  py                30     -0.338111  2 C  pz         
    32      0.337277  3 H  s                 35     -0.337318  4 H  s          
    15     -0.291400  1 C  pz                28     -0.234583  2 C  px         
 
 Vector   22  Occ=0.000000D+00  E=-2.092120D-01
              MO Center=  4.2D-01,  3.6D-01,  6.4D-01, r^2= 5.1D+00
   Bfn.  Coefficient  Atom+Function         Bfn.  Coefficient  Atom+Function  
  ----- ------------  ---------------      ----- ------------  ---------------
    13      2.039794  1 C  px                30      1.481225  2 C  pz         
    54      1.414102  6 H  s                 21     -1.073112  2 C  s          
    33     -0.886479  3 H  s                 36     -0.886691  4 H  s          
    57      0.747114  7 H  s                  6      0.666327  1 C  s          
    15     -0.634665  1 C  pz                28     -0.586346  2 C  px         
 
 Vector   23  Occ=0.000000D+00  E=-1.946110D-01
              MO Center= -7.2D-01, -7.9D-02,  3.0D-01, r^2= 3.7D+00
   Bfn.  Coefficient  Atom+Function         Bfn.  Coefficient  Atom+Function  
  ----- ------------  ---------------      ----- ------------  ---------------
    13      1.260181  1 C  px                53      0.955779  6 H  s          
    21     -0.554567  2 C  s                  6     -0.549510  1 C  s          
    12     -0.496403  1 C  pz                25     -0.487869  2 C  px         
    28      0.458344  2 C  px                33     -0.438463  3 H  s          
    36     -0.438496  4 H  s                 59      0.432193  8 H  s          
 
 Vector   24  Occ=0.000000D+00  E=-1.839093D-01
              MO Center=  5.5D-01,  3.0D-01,  3.9D-01, r^2= 4.0D+00
   Bfn.  Coefficient  Atom+Function         Bfn.  Coefficient  Atom+Function  
  ----- ------------  ---------------      ----- ------------  ---------------
    30      1.733094  2 C  pz                13     -1.350638  1 C  px         
    21      1.173092  2 C  s                  6     -1.116678  1 C  s          
    57      1.025679  7 H  s                 54     -0.596862  6 H  s          
    25     -0.564028  2 C  px                29      0.560519  2 C  py         
    56      0.553619  7 H  s                  5      0.511804  1 C  s          
 
 Vector   25  Occ=0.000000D+00  E=-1.797727D-01
              MO Center=  7.3D-01,  2.9D-01,  2.4D-01, r^2= 5.5D+00
   Bfn.  Coefficient  Atom+Function         Bfn.  Coefficient  Atom+Function  
  ----- ------------  ---------------      ----- ------------  ---------------
    29      2.075446  2 C  py                14     -1.428259  1 C  py         
    30     -0.805131  2 C  pz                28     -0.557957  2 C  px         
    15      0.553810  1 C  pz                33      0.460573  3 H  s          
    36     -0.460501  4 H  s                 13      0.384577  1 C  px         
    26     -0.385658  2 C  py                32      0.262533  3 H  s          
 
 Vector   26  Occ=0.000000D+00  E=-1.344960D-01
              MO Center=  9.2D-02, -6.8D-02, -2.4D-01, r^2= 6.0D+00
   Bfn.  Coefficient  Atom+Function         Bfn.  Coefficient  Atom+Function  
  ----- ------------  ---------------      ----- ------------  ---------------
    15      2.849895  1 C  pz                54     -2.423110  6 H  s          
    30     -2.363998  2 C  pz                13     -2.317369  1 C  px         
    21      1.315821  2 C  s                 29     -1.086209  2 C  py         
    33      0.780282  3 H  s                 36      0.780547  4 H  s          
    59      0.646525  8 H  s                 28     -0.630241  2 C  px         
 
 Vector   27  Occ=0.000000D+00  E=-1.017393D-01
              MO Center= -5.3D-01, -2.6D-01, -3.1D-01, r^2= 6.9D+00
   Bfn.  Coefficient  Atom+Function         Bfn.  Coefficient  Atom+Function  
  ----- ------------  ---------------      ----- ------------  ---------------
    30     -2.187685  2 C  pz                15      2.002230  1 C  pz         
    28      1.745871  2 C  px                 6      1.717359  1 C  s          
    57     -1.714559  7 H  s                 21     -1.693653  2 C  s          
    60      1.435574  8 H  s                 13      1.179747  1 C  px         
    14      1.093820  1 C  py                59     -1.003848  8 H  s          
 
 Vector   28  Occ=0.000000D+00  E=-2.792024D-02
              MO Center=  1.1D-02,  1.5D-02,  2.7D-02, r^2= 5.3D+00
   Bfn.  Coefficient  Atom+Function         Bfn.  Coefficient  Atom+Function  
  ----- ------------  ---------------      ----- ------------  ---------------
    33      1.502532  3 H  s                 36     -1.499710  4 H  s          
    50      1.090362  5 O  py                29      1.063051  2 C  py         
    32     -0.699928  3 H  s                 35      0.702623  4 H  s          
    14     -0.690548  1 C  py                26     -0.458137  2 C  py         
    47     -0.435760  5 O  py                51     -0.423836  5 O  pz         
 
 Vector   29  Occ=0.000000D+00  E=-2.533237D-02
              MO Center= -4.0D-01,  8.8D-02,  5.1D-01, r^2= 6.0D+00
   Bfn.  Coefficient  Atom+Function         Bfn.  Coefficient  Atom+Function  
  ----- ------------  ---------------      ----- ------------  ---------------
    54      3.392918  6 H  s                 13      2.928145  1 C  px         
    28      1.686305  2 C  px                15     -1.313793  1 C  pz         
    21     -1.301240  2 C  s                 53     -0.835005  6 H  s          
    20      0.753152  2 C  s                 59      0.717721  8 H  s          
    10     -0.679752  1 C  px                57     -0.676633  7 H  s          
 
 Vector   30  Occ=0.000000D+00  E= 7.293652D-03
              MO Center= -2.4D-01,  2.3D-01,  7.7D-01, r^2= 5.7D+00
   Bfn.  Coefficient  Atom+Function         Bfn.  Coefficient  Atom+Function  
  ----- ------------  ---------------      ----- ------------  ---------------
     6      5.126956  1 C  s                 54     -2.960009  6 H  s          
     5     -1.915329  1 C  s                 21     -1.587576  2 C  s          
    57      1.539085  7 H  s                 15      1.108209  1 C  pz         
    13     -0.796458  1 C  px                20      0.773342  2 C  s          
    30      0.704202  2 C  pz                51     -0.559010  5 O  pz         
 
 Vector   31  Occ=0.000000D+00  E= 1.543024D-02
              MO Center=  1.2D+00,  2.1D-01, -3.2D-01, r^2= 5.5D+00
   Bfn.  Coefficient  Atom+Function         Bfn.  Coefficient  Atom+Function  
  ----- ------------  ---------------      ----- ------------  ---------------
    57      3.443502  7 H  s                  6     -2.584179  1 C  s          
    30      1.458726  2 C  pz                56     -1.413815  7 H  s          
    28     -1.392196  2 C  px                33     -1.014656  3 H  s          
    36     -1.014575  4 H  s                 13     -0.929209  1 C  px         
    27     -0.779408  2 C  pz                21      0.757620  2 C  s          
 
 Vector   32  Occ=0.000000D+00  E= 3.123266D-02
              MO Center=  6.6D-01,  4.0D-01,  5.7D-01, r^2= 6.8D+00
   Bfn.  Coefficient  Atom+Function         Bfn.  Coefficient  Atom+Function  
  ----- ------------  ---------------      ----- ------------  ---------------
    33      2.693219  3 H  s                 36     -2.693908  4 H  s          
    29      1.803464  2 C  py                50     -1.001489  5 O  py         
    32     -0.814117  3 H  s                 35      0.814085  4 H  s          
    30     -0.698579  2 C  pz                26     -0.667057  2 C  py         
    28     -0.484574  2 C  px                14      0.457957  1 C  py         
 
 Vector   33  Occ=0.000000D+00  E= 4.775534D-02
              MO Center=  9.9D-01,  5.9D-01,  8.3D-01, r^2= 5.3D+00
   Bfn.  Coefficient  Atom+Function         Bfn.  Coefficient  Atom+Function  
  ----- ------------  ---------------      ----- ------------  ---------------
     6      3.949706  1 C  s                 13      2.365541  1 C  px         
    28      2.275175  2 C  px                33     -2.272956  3 H  s          
    36     -2.272252  4 H  s                  5     -1.669763  1 C  s          
    20     -1.589693  2 C  s                 30      1.108106  2 C  pz         
    29      1.041132  2 C  py                54      0.992391  6 H  s          
 
 Vector   34  Occ=0.000000D+00  E= 6.332167D-02
              MO Center= -8.8D-01, -5.4D-01, -7.7D-01, r^2= 5.1D+00
   Bfn.  Coefficient  Atom+Function         Bfn.  Coefficient  Atom+Function  
  ----- ------------  ---------------      ----- ------------  ---------------
    60      1.991959  8 H  s                 13      1.977197  1 C  px         
    51      1.779090  5 O  pz                 6     -1.725358  1 C  s          
    50      0.811792  5 O  py                57     -0.734481  7 H  s          
    53      0.613878  6 H  s                 14      0.558336  1 C  py         
    42      0.560900  5 O  s                 32     -0.549849  3 H  s          
 
 Vector   35  Occ=0.000000D+00  E= 1.614850D-01
              MO Center= -2.9D-01, -3.0D-01, -5.7D-01, r^2= 4.6D+00
   Bfn.  Coefficient  Atom+Function         Bfn.  Coefficient  Atom+Function  
  ----- ------------  ---------------      ----- ------------  ---------------
    21      5.337318  2 C  s                 13     -4.541749  1 C  px         
    54     -3.615517  6 H  s                 49      3.285395  5 O  px         
    15      2.940722  1 C  pz                59      1.389450  8 H  s          
    30     -1.176627  2 C  pz                57     -1.029130  7 H  s          
    51     -0.698090  5 O  pz                20     -0.657594  2 C  s          
 
 Vector   36  Occ=0.000000D+00  E= 2.454279D-01
              MO Center=  7.5D-01,  3.3D-01,  3.3D-01, r^2= 5.0D+00
   Bfn.  Coefficient  Atom+Function         Bfn.  Coefficient  Atom+Function  
  ----- ------------  ---------------      ----- ------------  ---------------
    21     10.345864  2 C  s                  6     -5.965738  1 C  s          
    13     -2.708279  1 C  px                20     -2.672077  2 C  s          
    28     -2.415433  2 C  px                32     -1.167793  3 H  s          
    35     -1.167705  4 H  s                  5      1.116135  1 C  s          
    49     -1.064467  5 O  px                60     -1.042348  8 H  s          
 
 Vector   37  Occ=0.000000D+00  E= 5.357259D-01
              MO Center= -5.2D-01, -3.8D-01, -6.1D-01, r^2= 2.7D+00
   Bfn.  Coefficient  Atom+Function         Bfn.  Coefficient  Atom+Function  
  ----- ------------  ---------------      ----- ------------  ---------------
    42      5.879079  5 O  s                  6     -3.207456  1 C  s          
    41     -2.883457  5 O  s                 15      2.064307  1 C  pz         
    51      1.201932  5 O  pz                30     -1.177878  2 C  pz         
    12      0.889692  1 C  pz                54     -0.871673  6 H  s          
    21      0.790615  2 C  s                 59     -0.761336  8 H  s          
 
 Vector   38  Occ=0.000000D+00  E= 7.806804D-01
              MO Center=  3.9D-02,  1.3D-01,  3.2D-01, r^2= 2.4D+00
   Bfn.  Coefficient  Atom+Function         Bfn.  Coefficient  Atom+Function  
  ----- ------------  ---------------      ----- ------------  ---------------
    10      1.784215  1 C  px                12      1.587604  1 C  pz         
    25      1.451067  2 C  px                11      1.095553  1 C  py         
     6     -0.966452  1 C  s                 42      0.886406  5 O  s          
    21     -0.847735  2 C  s                 28     -0.800417  2 C  px         
    15     -0.736125  1 C  pz                 9     -0.690268  1 C  pz         
 
 Vector   39  Occ=0.000000D+00  E= 7.888662D-01
              MO Center= -2.9D-01,  4.7D-02,  3.2D-01, r^2= 1.8D+00
   Bfn.  Coefficient  Atom+Function         Bfn.  Coefficient  Atom+Function  
  ----- ------------  ---------------      ----- ------------  ---------------
    11      1.546911  1 C  py                 8     -1.093104  1 C  py         
    14     -0.880333  1 C  py                12     -0.599846  1 C  pz         
     9      0.423862  1 C  pz                10     -0.416113  1 C  px         
    15      0.341294  1 C  pz                 7      0.294017  1 C  px         
    33     -0.281597  3 H  s                 36      0.281554  4 H  s          
 
 Vector   40  Occ=0.000000D+00  E= 8.548693D-01
              MO Center=  4.6D-01,  2.9D-01,  4.3D-01, r^2= 2.4D+00
   Bfn.  Coefficient  Atom+Function         Bfn.  Coefficient  Atom+Function  
  ----- ------------  ---------------      ----- ------------  ---------------
    25      1.680395  2 C  px                54     -1.571800  6 H  s          
    10      1.508677  1 C  px                13     -1.424167  1 C  px         
    28     -1.429007  2 C  px                12     -1.305228  1 C  pz         
    57      1.284897  7 H  s                 15      1.000539  1 C  pz         
     5      0.830941  1 C  s                 22     -0.749876  2 C  px         
 
 Vector   41  Occ=0.000000D+00  E= 9.663603D-01
              MO Center=  9.3D-01,  3.8D-01,  3.4D-01, r^2= 1.9D+00
   Bfn.  Coefficient  Atom+Function         Bfn.  Coefficient  Atom+Function  
  ----- ------------  ---------------      ----- ------------  ---------------
    26      2.142520  2 C  py                29     -1.813355  2 C  py         
    33     -1.297568  3 H  s                 36      1.297461  4 H  s          
    23     -1.141471  2 C  py                27     -0.830847  2 C  pz         
    30      0.703190  2 C  pz                32      0.699119  3 H  s          
    35     -0.698819  4 H  s                 11     -0.640089  1 C  py         
 
 Vector   42  Occ=0.000000D+00  E= 1.011075D+00
              MO Center=  2.1D-01,  2.0D-01,  3.6D-01, r^2= 2.6D+00
   Bfn.  Coefficient  Atom+Function         Bfn.  Coefficient  Atom+Function  
  ----- ------------  ---------------      ----- ------------  ---------------
    10      1.733727  1 C  px                13     -1.218029  1 C  px         
    25     -1.004292  2 C  px                 7     -0.940450  1 C  px         
     5     -0.905208  1 C  s                  6      0.897525  1 C  s          
    20     -0.818767  2 C  s                 22      0.816834  2 C  px         
    54     -0.688181  6 H  s                 53      0.663771  6 H  s          
 
 Vector   43  Occ=0.000000D+00  E= 1.084271D+00
              MO Center=  6.7D-01,  3.8D-01,  5.2D-01, r^2= 2.4D+00
   Bfn.  Coefficient  Atom+Function         Bfn.  Coefficient  Atom+Function  
  ----- ------------  ---------------      ----- ------------  ---------------
    27      2.378992  2 C  pz                30     -2.113369  2 C  pz         
    12     -1.842824  1 C  pz                57     -1.596225  7 H  s          
    15      1.386297  1 C  pz                54     -1.155855  6 H  s          
    56      1.066261  7 H  s                 24     -1.028750  2 C  pz         
    33      1.009196  3 H  s                 36      1.009636  4 H  s          
 
 Vector   44  Occ=0.000000D+00  E= 1.521514D+00
              MO Center= -1.6D+00, -8.0D-01, -9.4D-01, r^2= 1.2D+00
   Bfn.  Coefficient  Atom+Function         Bfn.  Coefficient  Atom+Function  
  ----- ------------  ---------------      ----- ------------  ---------------
    59      2.301293  8 H  s                 58     -1.259957  8 H  s          
    60     -1.216923  8 H  s                 46      0.870171  5 O  px         
    42     -0.602421  5 O  s                 43     -0.575394  5 O  px         
    15     -0.485493  1 C  pz                54      0.348132  6 H  s          
     5      0.314954  1 C  s                 47      0.225794  5 O  py         
 
 Vector   45  Occ=0.000000D+00  E= 1.564613D+00
              MO Center=  1.8D-01,  2.9D-01,  6.3D-01, r^2= 3.4D+00
   Bfn.  Coefficient  Atom+Function         Bfn.  Coefficient  Atom+Function  
  ----- ------------  ---------------      ----- ------------  ---------------
     5      2.841175  1 C  s                 20     -2.107289  2 C  s          
     4     -1.984757  1 C  s                 19      1.535028  2 C  s          
    53     -1.442871  6 H  s                 54      1.260178  6 H  s          
    56      1.173046  7 H  s                  6     -0.987982  1 C  s          
    32      0.936032  3 H  s                 35      0.936009  4 H  s          
 
 Vector   46  Occ=0.000000D+00  E= 1.645746D+00
              MO Center=  7.9D-02,  3.0D-01,  7.2D-01, r^2= 3.3D+00
   Bfn.  Coefficient  Atom+Function         Bfn.  Coefficient  Atom+Function  
  ----- ------------  ---------------      ----- ------------  ---------------
    20      1.836668  2 C  s                 53     -1.558955  6 H  s          
    19     -1.501944  2 C  s                 52      1.056995  6 H  s          
    56     -1.045045  7 H  s                 32     -0.871989  3 H  s          
    35     -0.872173  4 H  s                  5      0.733485  1 C  s          
     6     -0.725895  1 C  s                 13     -0.638834  1 C  px         
 
 Vector   47  Occ=0.000000D+00  E= 1.785273D+00
              MO Center=  1.5D+00,  4.6D-01,  1.6D-01, r^2= 2.2D+00
   Bfn.  Coefficient  Atom+Function         Bfn.  Coefficient  Atom+Function  
  ----- ------------  ---------------      ----- ------------  ---------------
    56      1.736765  7 H  s                 55     -1.241696  7 H  s          
    32     -0.939604  3 H  s                 35     -0.940803  4 H  s          
    57     -0.848604  7 H  s                 31      0.661382  3 H  s          
    34      0.662203  4 H  s                 20      0.581276  2 C  s          
    33      0.515475  3 H  s                 36      0.516175  4 H  s          
 
 Vector   48  Occ=0.000000D+00  E= 1.816845D+00
              MO Center=  1.2D+00,  7.6D-01,  1.1D+00, r^2= 2.1D+00
   Bfn.  Coefficient  Atom+Function         Bfn.  Coefficient  Atom+Function  
  ----- ------------  ---------------      ----- ------------  ---------------
    32      1.645013  3 H  s                 35     -1.644394  4 H  s          
    31     -1.116275  3 H  s                 34      1.115812  4 H  s          
    33     -1.023829  3 H  s                 36      1.023656  4 H  s          
    47      0.191887  5 O  py                26      0.174089  2 C  py         
    14     -0.150740  1 C  py                44     -0.138574  5 O  py         
 
 Vector   49  Occ=0.000000D+00  E= 1.840178D+00
              MO Center= -2.2D-01,  1.4D-01,  5.1D-01, r^2= 1.8D+00
   Bfn.  Coefficient  Atom+Function         Bfn.  Coefficient  Atom+Function  
  ----- ------------  ---------------      ----- ------------  ---------------
     5      4.383219  1 C  s                  6     -3.546301  1 C  s          
     4     -3.356020  1 C  s                 20      1.415586  2 C  s          
    19     -1.269856  2 C  s                 53      0.979010  6 H  s          
    28     -0.896797  2 C  px                52     -0.781179  6 H  s          
    21     -0.668299  2 C  s                  3      0.651329  1 C  s          
 
 Vector   50  Occ=0.000000D+00  E= 1.898121D+00
              MO Center= -6.6D-01, -4.8D-01, -7.8D-01, r^2= 1.2D+00
   Bfn.  Coefficient  Atom+Function         Bfn.  Coefficient  Atom+Function  
  ----- ------------  ---------------      ----- ------------  ---------------
    47      1.569953  5 O  py                44     -1.073336  5 O  py         
    50     -0.913518  5 O  py                48     -0.608964  5 O  pz         
    14      0.441663  1 C  py                46     -0.422295  5 O  px         
    45      0.416315  5 O  pz                51      0.354348  5 O  pz         
    43      0.288714  5 O  px                11     -0.269678  1 C  py         
 
 Vector   51  Occ=0.000000D+00  E= 2.025540D+00
              MO Center= -5.2D-01, -3.9D-01, -6.4D-01, r^2= 1.9D+00
   Bfn.  Coefficient  Atom+Function         Bfn.  Coefficient  Atom+Function  
  ----- ------------  ---------------      ----- ------------  ---------------
    48      1.545438  5 O  pz                20      1.393330  2 C  s          
    21     -1.269998  2 C  s                 19     -1.111021  2 C  s          
     6      1.091516  1 C  s                 45     -0.996657  5 O  pz         
    13     -0.979642  1 C  px                51     -0.980374  5 O  pz         
    15      0.748033  1 C  pz                54     -0.684788  6 H  s          
 
 Vector   52  Occ=0.000000D+00  E= 2.225497D+00
              MO Center=  7.2D-01,  3.3D-01,  3.4D-01, r^2= 2.6D+00
   Bfn.  Coefficient  Atom+Function         Bfn.  Coefficient  Atom+Function  
  ----- ------------  ---------------      ----- ------------  ---------------
    21      6.849065  2 C  s                 20     -4.509048  2 C  s          
     6     -3.511224  1 C  s                 19      3.059033  2 C  s          
     5      1.998151  1 C  s                 13     -1.925447  1 C  px         
     4     -1.340805  1 C  s                 28     -1.187796  2 C  px         
    32     -1.127653  3 H  s                 35     -1.127572  4 H  s          
 
 Vector   53  Occ=0.000000D+00  E= 2.372079D+00
              MO Center= -6.2D-01, -4.6D-01, -7.5D-01, r^2= 1.7D+00
   Bfn.  Coefficient  Atom+Function         Bfn.  Coefficient  Atom+Function  
  ----- ------------  ---------------      ----- ------------  ---------------
    21      2.193936  2 C  s                 20     -1.725399  2 C  s          
    49      1.731433  5 O  px                46     -1.711233  5 O  px         
    13     -1.520963  1 C  px                54     -1.253684  6 H  s          
    59      1.184648  8 H  s                 19      1.168166  2 C  s          
    15      1.049839  1 C  pz                43      0.974600  5 O  px         
 
 Vector   54  Occ=0.000000D+00  E= 3.955195D+00
              MO Center= -6.6D-01, -4.8D-01, -7.8D-01, r^2= 8.8D-01
   Bfn.  Coefficient  Atom+Function         Bfn.  Coefficient  Atom+Function  
  ----- ------------  ---------------      ----- ------------  ---------------
    41      4.896543  5 O  s                 40     -3.854417  5 O  s          
    42     -3.631215  5 O  s                  6      1.614120  1 C  s          
    15     -1.053922  1 C  pz                39      0.809580  5 O  s          
    30      0.647383  2 C  pz                21     -0.589319  2 C  s          
    51     -0.548285  5 O  pz                59      0.545466  8 H  s          
 
 Vector   55  Occ=0.000000D+00  E= 1.088494D+01
              MO Center= -1.8D-01,  7.8D-02,  3.3D-01, r^2= 5.7D-01
   Bfn.  Coefficient  Atom+Function         Bfn.  Coefficient  Atom+Function  
  ----- ------------  ---------------      ----- ------------  ---------------
     4     -3.096005  1 C  s                  3      3.072186  1 C  s          
     5      2.568288  1 C  s                  2     -1.615247  1 C  s          
     6     -1.345763  1 C  s                 18      1.088292  2 C  s          
    19     -1.076315  2 C  s                 20      0.802163  2 C  s          
    17     -0.572949  2 C  s                 28     -0.319293  2 C  px         
 
 Vector   56  Occ=0.000000D+00  E= 1.115529D+01
              MO Center=  8.8D-01,  4.2D-01,  4.6D-01, r^2= 5.5D-01
   Bfn.  Coefficient  Atom+Function         Bfn.  Coefficient  Atom+Function  
  ----- ------------  ---------------      ----- ------------  ---------------
    19     -3.245098  2 C  s                 18      3.101838  2 C  s          
    20      2.940841  2 C  s                 21     -2.473703  2 C  s          
    17     -1.620935  2 C  s                  6      1.245774  1 C  s          
     4      1.173306  1 C  s                  5     -1.174358  1 C  s          
     3     -1.096321  1 C  s                  2      0.572217  1 C  s          
 
 Vector   57  Occ=0.000000D+00  E= 2.121159D+01
              MO Center= -6.9D-01, -5.0D-01, -8.2D-01, r^2= 2.0D-01
   Bfn.  Coefficient  Atom+Function         Bfn.  Coefficient  Atom+Function  
  ----- ------------  ---------------      ----- ------------  ---------------
    39      3.314243  5 O  s                 40     -3.186756  5 O  s          
    41      2.505605  5 O  s                 38     -1.740390  5 O  s          
    42     -1.494817  5 O  s                  6      0.603285  1 C  s          
    15     -0.426240  1 C  pz                30      0.250884  2 C  pz         
    51     -0.224899  5 O  pz                21     -0.185932  2 C  s          
 
 Vector   58  Occ=0.000000D+00  E= 6.181615D+01
              MO Center= -1.9D-01,  7.3D-02,  3.2D-01, r^2= 2.7D-01
   Bfn.  Coefficient  Atom+Function         Bfn.  Coefficient  Atom+Function  
  ----- ------------  ---------------      ----- ------------  ---------------
     2      2.783492  1 C  s                  3     -2.110288  1 C  s          
     1     -1.649269  1 C  s                  4      1.378845  1 C  s          
     5     -1.083826  1 C  s                 17      0.940621  2 C  s          
    18     -0.710130  2 C  s                  6      0.574140  1 C  s          
    16     -0.559194  2 C  s                 19      0.453575  2 C  s          
 
 Vector   59  Occ=0.000000D+00  E= 6.210375D+01
              MO Center=  8.9D-01,  4.2D-01,  4.6D-01, r^2= 2.7D-01
   Bfn.  Coefficient  Atom+Function         Bfn.  Coefficient  Atom+Function  
  ----- ------------  ---------------      ----- ------------  ---------------
    17      2.795275  2 C  s                 18     -2.135803  2 C  s          
    16     -1.650712  2 C  s                 19      1.450315  2 C  s          
    20     -1.242645  2 C  s                 21      1.036851  2 C  s          
     2     -0.952271  1 C  s                  3      0.730493  1 C  s          
     1      0.560530  1 C  s                  6     -0.517249  1 C  s          
 
 Vector   60  Occ=0.000000D+00  E= 1.171474D+02
              MO Center= -7.0D-01, -5.1D-01, -8.2D-01, r^2= 4.3D-02
   Bfn.  Coefficient  Atom+Function         Bfn.  Coefficient  Atom+Function  
  ----- ------------  ---------------      ----- ------------  ---------------
    38      2.967035  5 O  s                 39     -2.267473  5 O  s          
    37     -1.755878  5 O  s                 40      1.419436  5 O  s          
    41     -1.052571  5 O  s                 42      0.629783  5 O  s          
     6     -0.259024  1 C  s                 15      0.182191  1 C  pz         
    30     -0.107130  2 C  pz                51      0.095318  5 O  pz         
 
 
                     DFT Final Beta Molecular Orbital Analysis
                     -----------------------------------------
 
 Vector    1  Occ=1.000000D+00  E=-1.943788D+01
              MO Center= -7.0D-01, -5.1D-01, -8.2D-01, r^2= 1.5D-02
   Bfn.  Coefficient  Atom+Function         Bfn.  Coefficient  Atom+Function  
  ----- ------------  ---------------      ----- ------------  ---------------
    38      0.424763  5 O  s                 39      0.366187  5 O  s          
    37      0.299563  5 O  s                 40      0.054907  5 O  s          
 
 Vector    2  Occ=1.000000D+00  E=-1.060449D+01
              MO Center= -3.4D-01,  2.7D-02,  3.0D-01, r^2= 2.8D-02
   Bfn.  Coefficient  Atom+Function         Bfn.  Coefficient  Atom+Function  
  ----- ------------  ---------------      ----- ------------  ---------------
     2      0.424299  1 C  s                  3      0.359728  1 C  s          
     1      0.308824  1 C  s                  4      0.056589  1 C  s          
 
 Vector    3  Occ=1.000000D+00  E=-1.043952D+01
              MO Center=  1.0D+00,  4.6D-01,  4.8D-01, r^2= 2.8D-02
   Bfn.  Coefficient  Atom+Function         Bfn.  Coefficient  Atom+Function  
  ----- ------------  ---------------      ----- ------------  ---------------
    17      0.424224  2 C  s                 18      0.359483  2 C  s          
    16      0.308825  2 C  s                 19      0.057510  2 C  s          
 
 Vector    4  Occ=1.000000D+00  E=-1.604342D+00
              MO Center= -7.2D-01, -4.1D-01, -5.6D-01, r^2= 5.3D-01
   Bfn.  Coefficient  Atom+Function         Bfn.  Coefficient  Atom+Function  
  ----- ------------  ---------------      ----- ------------  ---------------
    41      0.533125  5 O  s                 42      0.249966  5 O  s          
     5      0.201016  1 C  s                 39     -0.142943  5 O  s          
    38     -0.119504  5 O  s                 40      0.112106  5 O  s          
     9     -0.101561  1 C  pz                45      0.098915  5 O  pz         
    48      0.097390  5 O  pz                58      0.069029  8 H  s          
 
 Vector    5  Occ=1.000000D+00  E=-1.261970D+00
              MO Center=  9.8D-02,  9.0D-02,  1.6D-01, r^2= 1.6D+00
   Bfn.  Coefficient  Atom+Function         Bfn.  Coefficient  Atom+Function  
  ----- ------------  ---------------      ----- ------------  ---------------
     5      0.385384  1 C  s                 20      0.362293  2 C  s          
    41     -0.167128  5 O  s                 43      0.124002  5 O  px         
    42     -0.119069  5 O  s                 46      0.110072  5 O  px         
     3     -0.103268  1 C  s                 21      0.098934  2 C  s          
    18     -0.097259  2 C  s                  7      0.092603  1 C  px         
 
 Vector    6  Occ=1.000000D+00  E=-1.134499D+00
              MO Center= -2.2D-01, -1.6D-01, -2.7D-01, r^2= 2.3D+00
   Bfn.  Coefficient  Atom+Function         Bfn.  Coefficient  Atom+Function  
[...]
    25     -0.984056  2 C  px                 5     -0.913453  1 C  s          
     7     -0.915216  1 C  px                 6      0.881310  1 C  s          
    22      0.806656  2 C  px                20     -0.794771  2 C  s          
    54     -0.573930  6 H  s                 53      0.566364  6 H  s          
 
 Vector   43  Occ=0.000000D+00  E= 1.099382D+00
              MO Center=  6.5D-01,  3.8D-01,  5.2D-01, r^2= 2.4D+00
   Bfn.  Coefficient  Atom+Function         Bfn.  Coefficient  Atom+Function  
  ----- ------------  ---------------      ----- ------------  ---------------
    27      2.347754  2 C  pz                30     -2.085176  2 C  pz         
    12     -1.824770  1 C  pz                57     -1.581151  7 H  s          
    15      1.359968  1 C  pz                54     -1.186363  6 H  s          
    56      1.069173  7 H  s                 24     -1.015440  2 C  pz         
    33      0.989341  3 H  s                 36      0.989972  4 H  s          
 
 Vector   44  Occ=0.000000D+00  E= 1.529785D+00
              MO Center= -1.6D+00, -8.0D-01, -9.4D-01, r^2= 1.2D+00
   Bfn.  Coefficient  Atom+Function         Bfn.  Coefficient  Atom+Function  
  ----- ------------  ---------------      ----- ------------  ---------------
    59      2.313552  8 H  s                 58     -1.269524  8 H  s          
    60     -1.216165  8 H  s                 46      0.851032  5 O  px         
    42     -0.595696  5 O  s                 43     -0.567471  5 O  px         
    15     -0.464287  1 C  pz                54      0.320314  6 H  s          
     5      0.307321  1 C  s                 47      0.230482  5 O  py         
 
 Vector   45  Occ=0.000000D+00  E= 1.585679D+00
              MO Center=  3.8D-01,  3.5D-01,  6.3D-01, r^2= 3.3D+00
   Bfn.  Coefficient  Atom+Function         Bfn.  Coefficient  Atom+Function  
  ----- ------------  ---------------      ----- ------------  ---------------
     5      2.912861  1 C  s                 20     -2.279629  2 C  s          
     4     -2.043777  1 C  s                 19      1.671309  2 C  s          
    53     -1.218299  6 H  s                 54      1.208564  6 H  s          
    56      1.145150  7 H  s                  6     -1.068261  1 C  s          
    32      1.064918  3 H  s                 35      1.064801  4 H  s          
 
 Vector   46  Occ=0.000000D+00  E= 1.675428D+00
              MO Center= -1.2D-01,  2.8D-01,  8.2D-01, r^2= 3.1D+00
   Bfn.  Coefficient  Atom+Function         Bfn.  Coefficient  Atom+Function  
  ----- ------------  ---------------      ----- ------------  ---------------
    20      1.706100  2 C  s                 53     -1.649820  6 H  s          
    19     -1.421242  2 C  s                  5      1.266475  1 C  s          
    52      1.090610  6 H  s                  6     -1.031503  1 C  s          
     4     -0.902677  1 C  s                 32     -0.849075  3 H  s          
    35     -0.849187  4 H  s                 56     -0.794591  7 H  s          
 
 Vector   47  Occ=0.000000D+00  E= 1.814631D+00
              MO Center=  1.5D+00,  4.3D-01,  6.3D-02, r^2= 2.1D+00
   Bfn.  Coefficient  Atom+Function         Bfn.  Coefficient  Atom+Function  
  ----- ------------  ---------------      ----- ------------  ---------------
    56      1.831409  7 H  s                 55     -1.296058  7 H  s          
    57     -0.883473  7 H  s                 32     -0.850540  3 H  s          
    35     -0.852684  4 H  s                 31      0.618427  3 H  s          
    34      0.619897  4 H  s                 33      0.491465  3 H  s          
    36      0.492738  4 H  s                 15     -0.459958  1 C  pz         
 
 Vector   48  Occ=0.000000D+00  E= 1.817663D+00
              MO Center=  1.2D+00,  7.6D-01,  1.1D+00, r^2= 2.1D+00
   Bfn.  Coefficient  Atom+Function         Bfn.  Coefficient  Atom+Function  
  ----- ------------  ---------------      ----- ------------  ---------------
    32      1.646871  3 H  s                 35     -1.645813  4 H  s          
    31     -1.118062  3 H  s                 34      1.117268  4 H  s          
    33     -1.025642  3 H  s                 36      1.025077  4 H  s          
    26      0.172213  2 C  py                47      0.172840  5 O  py         
    14     -0.156430  1 C  py                11      0.133030  1 C  py         
 
 Vector   49  Occ=0.000000D+00  E= 1.853963D+00
              MO Center= -2.4D-01,  1.4D-01,  5.3D-01, r^2= 1.9D+00
   Bfn.  Coefficient  Atom+Function         Bfn.  Coefficient  Atom+Function  
  ----- ------------  ---------------      ----- ------------  ---------------
     5      4.220518  1 C  s                  6     -3.441583  1 C  s          
     4     -3.245271  1 C  s                 20      1.400513  2 C  s          
    19     -1.250583  2 C  s                 53      1.112333  6 H  s          
    28     -0.893594  2 C  px                52     -0.864185  6 H  s          
    21     -0.685755  2 C  s                  3      0.630929  1 C  s          
 
 Vector   50  Occ=0.000000D+00  E= 1.907451D+00
              MO Center= -6.7D-01, -4.9D-01, -7.9D-01, r^2= 1.2D+00
   Bfn.  Coefficient  Atom+Function         Bfn.  Coefficient  Atom+Function  
  ----- ------------  ---------------      ----- ------------  ---------------
    47      1.570912  5 O  py                44     -1.075848  5 O  py         
    50     -0.912600  5 O  py                48     -0.609154  5 O  pz         
    14      0.438849  1 C  py                46     -0.422597  5 O  px         
    45      0.417175  5 O  pz                51      0.353877  5 O  pz         
    43      0.289412  5 O  px                11     -0.267528  1 C  py         
 
 Vector   51  Occ=0.000000D+00  E= 2.054635D+00
              MO Center= -5.0D-01, -3.8D-01, -6.2D-01, r^2= 1.9D+00
   Bfn.  Coefficient  Atom+Function         Bfn.  Coefficient  Atom+Function  
  ----- ------------  ---------------      ----- ------------  ---------------
    48      1.545705  5 O  pz                20      1.502353  2 C  s          
    21     -1.443707  2 C  s                  6      1.228217  1 C  s          
    19     -1.182296  2 C  s                 45     -0.998421  5 O  pz         
    51     -0.975970  5 O  pz                13     -0.890229  1 C  px         
    15      0.708815  1 C  pz                54     -0.631357  6 H  s          
 
 Vector   52  Occ=0.000000D+00  E= 2.237205D+00
              MO Center=  6.8D-01,  3.0D-01,  3.0D-01, r^2= 2.7D+00
   Bfn.  Coefficient  Atom+Function         Bfn.  Coefficient  Atom+Function  
  ----- ------------  ---------------      ----- ------------  ---------------
    21      6.750386  2 C  s                 20     -4.436765  2 C  s          
     6     -3.454500  1 C  s                 19      3.011350  2 C  s          
     5      1.977157  1 C  s                 13     -1.890985  1 C  px         
     4     -1.337054  1 C  s                 28     -1.176386  2 C  px         
    32     -1.095495  3 H  s                 35     -1.095477  4 H  s          
 
 Vector   53  Occ=0.000000D+00  E= 2.385299D+00
              MO Center= -6.0D-01, -4.5D-01, -7.3D-01, r^2= 1.8D+00
   Bfn.  Coefficient  Atom+Function         Bfn.  Coefficient  Atom+Function  
  ----- ------------  ---------------      ----- ------------  ---------------
    21      2.338962  2 C  s                 20     -1.807331  2 C  s          
    49      1.731037  5 O  px                46     -1.717637  5 O  px         
    13     -1.587044  1 C  px                54     -1.283900  6 H  s          
    19      1.220751  2 C  s                 59      1.176334  8 H  s          
    15      1.062516  1 C  pz                43      0.980452  5 O  px         
 
 Vector   54  Occ=0.000000D+00  E= 3.976422D+00
              MO Center= -6.6D-01, -4.8D-01, -7.8D-01, r^2= 8.8D-01
   Bfn.  Coefficient  Atom+Function         Bfn.  Coefficient  Atom+Function  
  ----- ------------  ---------------      ----- ------------  ---------------
    41      4.890746  5 O  s                 40     -3.854048  5 O  s          
    42     -3.622778  5 O  s                  6      1.609568  1 C  s          
    15     -1.055096  1 C  pz                39      0.810006  5 O  s          
    30      0.647590  2 C  pz                21     -0.593444  2 C  s          
    51     -0.543580  5 O  pz                59      0.541742  8 H  s          
 
 Vector   55  Occ=0.000000D+00  E= 1.088895D+01
              MO Center= -1.8D-01,  7.7D-02,  3.3D-01, r^2= 5.6D-01
   Bfn.  Coefficient  Atom+Function         Bfn.  Coefficient  Atom+Function  
  ----- ------------  ---------------      ----- ------------  ---------------
     4     -3.101765  1 C  s                  3      3.077529  1 C  s          
     5      2.573972  1 C  s                  2     -1.617927  1 C  s          
     6     -1.351696  1 C  s                 18      1.073084  2 C  s          
    19     -1.060476  2 C  s                 20      0.787697  2 C  s          
    17     -0.564915  2 C  s                 28     -0.320953  2 C  px         
 
 Vector   56  Occ=0.000000D+00  E= 1.116302D+01
              MO Center=  8.9D-01,  4.2D-01,  4.6D-01, r^2= 5.4D-01
   Bfn.  Coefficient  Atom+Function         Bfn.  Coefficient  Atom+Function  
  ----- ------------  ---------------      ----- ------------  ---------------
    19     -3.250927  2 C  s                 18      3.107262  2 C  s          
    20      2.944902  2 C  s                 21     -2.474903  2 C  s          
    17     -1.623495  2 C  s                  6      1.239282  1 C  s          
     4      1.158272  1 C  s                  5     -1.161929  1 C  s          
     3     -1.081264  1 C  s                  2      0.564244  1 C  s          
 
 Vector   57  Occ=0.000000D+00  E= 2.122978D+01
              MO Center= -6.9D-01, -5.0D-01, -8.2D-01, r^2= 2.0D-01
   Bfn.  Coefficient  Atom+Function         Bfn.  Coefficient  Atom+Function  
  ----- ------------  ---------------      ----- ------------  ---------------
    39      3.314138  5 O  s                 40     -3.186484  5 O  s          
    41      2.504923  5 O  s                 38     -1.740117  5 O  s          
    42     -1.494164  5 O  s                  6      0.602963  1 C  s          
    15     -0.426042  1 C  pz                30      0.250770  2 C  pz         
    51     -0.224781  5 O  pz                21     -0.185844  2 C  s          
 
 Vector   58  Occ=0.000000D+00  E= 6.181838D+01
              MO Center= -2.0D-01,  7.2D-02,  3.2D-01, r^2= 2.7D-01
   Bfn.  Coefficient  Atom+Function         Bfn.  Coefficient  Atom+Function  
  ----- ------------  ---------------      ----- ------------  ---------------
     2      2.785940  1 C  s                  3     -2.112181  1 C  s          
     1     -1.650671  1 C  s                  4      1.380128  1 C  s          
     5     -1.085041  1 C  s                 17      0.933572  2 C  s          
    18     -0.704754  2 C  s                  6      0.575445  1 C  s          
    16     -0.555009  2 C  s                 19      0.449898  2 C  s          
 
 Vector   59  Occ=0.000000D+00  E= 6.210790D+01
              MO Center=  8.9D-01,  4.2D-01,  4.6D-01, r^2= 2.7D-01
   Bfn.  Coefficient  Atom+Function         Bfn.  Coefficient  Atom+Function  
  ----- ------------  ---------------      ----- ------------  ---------------
    17      2.797732  2 C  s                 18     -2.137698  2 C  s          
    16     -1.652104  2 C  s                 19      1.451472  2 C  s          
    20     -1.243412  2 C  s                 21      1.037077  2 C  s          
     2     -0.945240  1 C  s                  3      0.725170  1 C  s          
     1      0.556351  1 C  s                  6     -0.515787  1 C  s          
 
 Vector   60  Occ=0.000000D+00  E= 1.171581D+02
              MO Center= -7.0D-01, -5.1D-01, -8.2D-01, r^2= 4.3D-02
   Bfn.  Coefficient  Atom+Function         Bfn.  Coefficient  Atom+Function  
  ----- ------------  ---------------      ----- ------------  ---------------
    38      2.967159  5 O  s                 39     -2.267646  5 O  s          
    37     -1.755857  5 O  s                 40      1.419471  5 O  s          
    41     -1.052555  5 O  s                 42      0.629750  5 O  s          
     6     -0.259005  1 C  s                 15      0.182173  1 C  pz         
    30     -0.107121  2 C  pz                51      0.095319  5 O  pz         
 

   alpha - beta orbital overlaps 
   ----------------------------- 


   alpha      1      2      3      4      5      6      7      8      9     10
    beta      1      2      3      4      5      6      7      8      9     10
 overlap   1.000  1.000  1.000  1.000  1.000  0.996  0.996  0.977  0.999  0.726


   alpha     11     12     13     14     15     16     17     18     19     20
    beta     12     11     13     14     15     17     16     18     19     20
 overlap   0.746  0.999  1.000  0.999  0.997  0.991  0.999  1.000  0.993  0.997


   alpha     21     22     23     24     25     26     27     28     29     30
    beta     21     22     23     25     24     26     27     28     29     30
 overlap   1.000  0.992  0.962  0.965  1.000  0.993  0.999  1.000  0.987  0.976


   alpha     31     32     33     34     35     36     37     38     39     40
    beta     32     31     33     34     35     36     37     38     39     40
 overlap   0.960  1.000  0.980  0.997  0.999  1.000  1.000  0.999  1.000  0.999


   alpha     41     42     43     44     45     46     47     48     49     50
    beta     41     42     43     44     45     46     47     48     49     50
 overlap   1.000  0.996  0.996  1.000  0.992  0.990  0.993  1.000  0.996  1.000


   alpha     51     52     53     54     55     56     57     58     59     60
    beta     51     52     53     54     55     56     57     58     59     60
 overlap   0.999  0.999  0.999  1.000  1.000  1.000  1.000  1.000  1.000  1.000


     --------------------------
     Expectation value of S2:  
     --------------------------
      <S2> =      0.7521 (Exact =     0.7500)
 

 center of mass
 --------------
 x =  -0.05892155 y =  -0.04668358 z =  -0.07953185

 moments of inertia (a.u.)
 ------------------
         104.140554054349         -51.539263301226         -58.189389065510
         -51.539263301226         182.345944273369         -40.382517863403
         -58.189389065510         -40.382517863403         148.090733829195
 
     Multipole analysis of the density
     ---------------------------------
 
     L   x y z        total         alpha         beta         nuclear
     -   - - -        -----         -----         ----         -------
     0   0 0 0      2.000000    -12.000000    -11.000000     25.000000
 
     1   1 0 0     -0.517645     -0.345521     -0.172125     -0.000000
     1   0 1 0      0.140876      0.094727      0.046149      0.000000
     1   0 0 1      0.722219      0.484256      0.237963     -0.000000
 
     2   2 0 0      1.244441    -38.605749    -34.225536     74.075725
     2   1 1 0      4.235068    -14.133093    -13.122834     31.490994
     2   1 0 1      2.808319    -15.290179    -15.462135     33.560633
     2   0 2 0     -8.362721    -16.199204    -15.180043     23.016526
     2   0 1 1      2.452303    -11.072034    -10.117430     23.641767
     2   0 0 2     -6.076975    -26.051043    -23.093916     43.067984
 

 Task  times  cpu:       15.3s     wall:       16.4s
 
 
                                NWChem Input Module
                                -------------------
 
 
 Summary of allocated global arrays
-----------------------------------
  No active global arrays



                         GA Statistics for process    0
                         ------------------------------

       create   destroy   get      put      acc     scatter   gather  read&inc
calls: 2956     2956     1.30e+05 6187     8.44e+04    0        0     4081     
number of processes/call 9.14e+00 2.71e+01 7.62e+00 0.00e+00 0.00e+00
bytes total:             2.59e+08 4.88e+07 1.22e+08 0.00e+00 0.00e+00 3.26e+04
bytes remote:            1.73e+08 2.17e+07 9.03e+07 0.00e+00 0.00e+00 0.00e+00
Max memory consumed for GA by this process: 453600 bytes
 
 
 
                                     CITATION
                                     --------
                Please cite the following reference when publishing
                           results obtained with NWChem:
 
          E. Apr, E. J. Bylaska, W. A. de Jong, N. Govind, K. Kowalski,
       T. P. Straatsma, M. Valiev, H. J. J. van Dam, Y. Alexeev, J. Anchell,
       V. Anisimov, F. W. Aquino, R. Atta-Fynn, J. Autschbach, N. P. Bauman,
     J. C. Becca, D. E. Bernholdt, K. Bhaskaran-Nair, S. Bogatko, P. Borowski,
        J. Boschen, J. Brabec, A. Bruner, E. Caut, Y. Chen, G. N. Chuev,
      C. J. Cramer, J. Daily, M. J. O. Deegan, T. H. Dunning Jr., M. Dupuis,
   K. G. Dyall, G. I. Fann, S. A. Fischer, A. Fonari, H. Frchtl, L. Gagliardi,
      J. Garza, N. Gawande, S. Ghosh, K. Glaesemann, A. W. Gtz, J. Hammond,
       V. Helms, E. D. Hermes, K. Hirao, S. Hirata, M. Jacquelin, L. Jensen,
   B. G. Johnson, H. Jnsson, R. A. Kendall, M. Klemm, R. Kobayashi, V. Konkov,
      S. Krishnamoorthy, M. Krishnan, Z. Lin, R. D. Lins, R. J. Littlefield,
      A. J. Logsdail, K. Lopata, W. Ma, A. V. Marenich, J. Martin del Campo,
   D. Mejia-Rodriguez, J. E. Moore, J. M. Mullin, T. Nakajima, D. R. Nascimento,
    J. A. Nichols, P. J. Nichols, J. Nieplocha, A. Otero-de-la-Roza, B. Palmer,
    A. Panyala, T. Pirojsirikul, B. Peng, R. Peverati, J. Pittner, L. Pollack,
   R. M. Richard, P. Sadayappan, G. C. Schatz, W. A. Shelton, D. W. Silverstein,
   D. M. A. Smith, T. A. Soares, D. Song, M. Swart, H. L. Taylor, G. S. Thomas,
            V. Tipparaju, D. G. Truhlar, K. Tsemekhman, T. Van Voorhis,
     . Vzquez-Mayagoitia, P. Verma, O. Villa, A. Vishnu, K. D. Vogiatzis,
        D. Wang, J. H. Weare, M. J. Williamson, T. L. Windus, K. Woliski,
        A. T. Wong, Q. Wu, C. Yang, Q. Yu, M. Zacharias, Z. Zhang, Y. Zhao,
                                and R. J. Harrison
                        "NWChem: Past, present, and future
                         J. Chem. Phys. 152, 184102 (2020)
                               doi:10.1063/5.0004997
 
                                      AUTHORS
                                      -------
     E. Apra, E. J. Bylaska, N. Govind, K. Kowalski, M. Valiev, W. A. de Jong,
      T. P. Straatsma, H. J. J. van Dam, D. Wang, T. L. Windus, N. P. Bauman,
       A. Panyala, J. Hammond, J. Autschbach, K. Bhaskaran-Nair, J. Brabec,
    K. Lopata, S. A. Fischer, S. Krishnamoorthy, M. Jacquelin, W. Ma, M. Klemm,
       O. Villa, Y. Chen, V. Anisimov, F. Aquino, S. Hirata, M. T. Hackler,
           Eric Hermes, L. Jensen, J. E. Moore, J. C. Becca, V. Konjkov,
            D. Mejia-Rodriguez, T. Risthaus, M. Malagoli, A. Marenich,
   A. Otero-de-la-Roza, J. Mullin, P. Nichols, R. Peverati, J. Pittner, Y. Zhao,
        P.-D. Fan, A. Fonari, M. J. Williamson, R. J. Harrison, J. R. Rehr,
      M. Dupuis, D. Silverstein, D. M. A. Smith, J. Nieplocha, V. Tipparaju,
      M. Krishnan, B. E. Van Kuiken, A. Vazquez-Mayagoitia, M. Swart, Q. Wu,
   T. Van Voorhis, A. A. Auer, M. Nooijen, L. D. Crosby, E. Brown, G. Cisneros,
     G. I. Fann, H. Fruchtl, J. Garza, K. Hirao, R. A. Kendall, J. A. Nichols,
       K. Tsemekhman, K. Wolinski, J. Anchell, D. E. Bernholdt, P. Borowski,
       T. Clark, D. Clerc, H. Dachsel, M. J. O. Deegan, K. Dyall, D. Elwood,
      E. Glendening, M. Gutowski, A. C. Hess, J. Jaffe, B. G. Johnson, J. Ju,
        R. Kobayashi, R. Kutteh, Z. Lin, R. Littlefield, X. Long, B. Meng,
      T. Nakajima, S. Niu, L. Pollack, M. Rosing, K. Glaesemann, G. Sandrone,
      M. Stave, H. Taylor, G. Thomas, J. H. van Lenthe, A. T. Wong, Z. Zhang.

 Total times  cpu:       15.3s     wall:       16.5s
