 
             Northwest Computational Chemistry Package (NWChem) 7.0.0
             --------------------------------------------------------
 
 
                    Environmental Molecular Sciences Laboratory
                       Pacific Northwest National Laboratory
                                Richland, WA 99352
 
                              Copyright (c) 1994-2020
                       Pacific Northwest National Laboratory
                            Battelle Memorial Institute
 
             NWChem is an open-source computational chemistry package
                        distributed under the terms of the
                      Educational Community License (ECL) 2.0
             A copy of the license is included with this distribution
                              in the LICENSE.TXT file
 
                                  ACKNOWLEDGMENT
                                  --------------

            This software and its documentation were developed at the
            EMSL at Pacific Northwest National Laboratory, a multiprogram
            national laboratory, operated for the U.S. Department of Energy
            by Battelle under Contract Number DE-AC05-76RL01830. Support
            for this work was provided by the Department of Energy Office
            of Biological and Environmental Research, Office of Basic
            Energy Sciences, and the Office of Advanced Scientific Computing.


                                NWChem Input Module
                                -------------------
 
 
 Summary of "ao basis" -> "" (spherical)
 ------------------------------------------------------------------------------
       Tag                 Description            Shells   Functions and Types
 ---------------- ------------------------------  ------  ---------------------
 *                        ahlrichs_vtz                on all atoms 



 Scaling coordinates for geometry "geometry" by  1.889725989
 (inverse scale =  0.529177249)

 
 
                             Geometry "geometry" -> ""
                             -------------------------
 
 Output coordinates in angstroms (scale by  1.889725989 to convert to a.u.)
 
  No.       Tag          Charge          X              Y              Z
 ---- ---------------- ---------- -------------- -------------- --------------
    1 C                    6.0000    -1.14347450     0.49906817     0.94902169
    2 C                    6.0000     0.02912880     0.06129181     0.13478693
    3 C                    6.0000     1.35978801    -0.07852520     0.75767517
    4 O                    8.0000    -0.08938703    -0.20066945    -1.12777733
    5 Cl                  17.0000    -2.64264148     0.76118068    -0.10941136
    6 H                    1.0000    -0.92905273     1.43480338     1.48402615
    7 H                    1.0000    -1.39350414    -0.27496750     1.69167939
    8 Cl                  17.0000     2.61793278    -0.92226792    -0.26862766
    9 H                    1.0000     1.27651558    -0.60046447     1.72335449
   10 H                    1.0000     1.73871347     0.93725603     0.98112606
   11 H                    1.0000    -1.03018208    -0.04379731    -1.48020675
 
      Atomic Mass 
      ----------- 
 
      C                 12.000000
      O                 15.994910
      Cl                34.968850
      H                  1.007825
 

 Effective nuclear repulsion energy (a.u.)     340.2126219772

            Nuclear Dipole moment (a.u.) 
            ----------------------------
        X                 Y               Z
 ---------------- ---------------- ----------------
     0.0000000000    -0.0000000000     0.0000000000
 
 
            XYZ format geometry
            -------------------
    11
 geometry
 C                    -1.14347450     0.49906817     0.94902169
 C                     0.02912880     0.06129181     0.13478693
 C                     1.35978801    -0.07852520     0.75767517
 O                    -0.08938703    -0.20066945    -1.12777733
 Cl                   -2.64264148     0.76118068    -0.10941136
 H                    -0.92905273     1.43480338     1.48402615
 H                    -1.39350414    -0.27496750     1.69167939
 Cl                    2.61793278    -0.92226792    -0.26862766
 H                     1.27651558    -0.60046447     1.72335449
 H                     1.73871347     0.93725603     0.98112606
 H                    -1.03018208    -0.04379731    -1.48020675
 
 ==============================================================================
                                internuclear distances
 ------------------------------------------------------------------------------
       center one      |      center two      | atomic units |  angstroms
 ------------------------------------------------------------------------------
    2 C                |   1 C                |     2.82173  |     1.49319
    3 C                |   2 C                |     2.78899  |     1.47587
    4 O                |   2 C                |     2.44699  |     1.29489
    5 Cl               |   1 C                |     3.50313  |     1.85378
    6 H                |   1 C                |     2.07681  |     1.09900
    7 H                |   1 C                |     2.08143  |     1.10145
    8 Cl               |   3 C                |     3.45780  |     1.82979
    9 H                |   3 C                |     2.08032  |     1.10086
   10 H                |   3 C                |     2.09182  |     1.10694
   11 H                |   4 O                |     1.92150  |     1.01681
 ------------------------------------------------------------------------------
                         number of included internuclear distances:         10
 ==============================================================================



 ==============================================================================
                                 internuclear angles
 ------------------------------------------------------------------------------
        center 1       |       center 2       |       center 3       |  degrees
 ------------------------------------------------------------------------------
    2 C                |   1 C                |   5 Cl               |   111.42
    2 C                |   1 C                |   6 H                |   111.21
    2 C                |   1 C                |   7 H                |   109.87
    5 Cl               |   1 C                |   6 H                |   108.38
    5 Cl               |   1 C                |   7 H                |   107.50
    6 H                |   1 C                |   7 H                |   108.32
    1 C                |   2 C                |   3 C                |   120.38
    1 C                |   2 C                |   4 O                |   121.27
    3 C                |   2 C                |   4 O                |   118.35
    2 C                |   3 C                |   8 Cl               |   115.27
    2 C                |   3 C                |   9 H                |   110.30
    2 C                |   3 C                |  10 H                |   107.87
    8 Cl               |   3 C                |   9 H                |   108.99
    8 Cl               |   3 C                |  10 H                |   107.52
    9 H                |   3 C                |  10 H                |   106.49
    2 C                |   4 O                |  11 H                |   113.04
 ------------------------------------------------------------------------------
                            number of included internuclear angles:         16
 ==============================================================================



                              Aldehyde and Ketone set
                              -----------------------
 
                                 NWChem DFT Module
                                 -----------------
 
 
                              Aldehyde and Ketone set
 
 
                      Basis "ao basis" -> "ao basis" (spherical)
                      -----
  C (Carbon)
  ----------
            Exponent  Coefficients 
       -------------- ---------------------------------------------------------
  1 S  8.50603840E+03  0.000534
  1 S  1.27573290E+03  0.004125
  1 S  2.90311870E+02  0.021171
  1 S  8.20562000E+01  0.082418
  1 S  2.64796410E+01  0.240129
 
  2 S  9.24145850E+00  1.000000
 
  3 S  3.36435300E+00  1.000000
 
  4 S  8.71741640E-01  1.000000
 
  5 S  3.63523520E-01  1.000000
 
  6 S  1.28731350E-01  1.000000
 
  7 P  3.47094960E+01  0.005330
  7 P  7.95908830E+00  0.035866
  7 P  2.37869720E+00  0.142003
  7 P  8.15400650E-01  0.342031
 
  8 P  2.89537850E-01  1.000000
 
  9 P  1.00847540E-01  1.000000
 
  O (Oxygen)
  ----------
            Exponent  Coefficients 
       -------------- ---------------------------------------------------------
  1 S  1.59026475E+04  0.000515
  1 S  2.38495378E+03  0.003982
  1 S  5.42719572E+02  0.020477
  1 S  1.53404079E+02  0.080262
  1 S  4.95457161E+01  0.237668
 
  2 S  1.73396499E+01  1.000000
 
  3 S  6.33033553E+00  1.000000
 
  4 S  1.69958822E+00  1.000000
 
  5 S  6.89544913E-01  1.000000
 
  6 S  2.39360282E-01  1.000000
 
  7 P  6.32705240E+01  0.006071
  7 P  1.46233123E+01  0.041948
  7 P  4.44895180E+00  0.161569
  7 P  1.52815132E+00  0.356828
 
  8 P  5.29973159E-01  1.000000
 
  9 P  1.75094460E-01  1.000000
 
  Cl (Chlorine)
  -------------
            Exponent  Coefficients 
       -------------- ---------------------------------------------------------
  1 S  1.17805790E+05  0.000242
  1 S  1.76602650E+04  0.001874
  1 S  4.01859730E+03  0.009736
  1 S  1.13622310E+03  0.039495
  1 S  3.68120620E+02  0.127972
 
  2 S  1.30861540E+02  1.000000
 
  3 S  5.04790110E+01  0.428741
  3 S  2.09168050E+01  0.196685
 
  4 S  6.35313880E+00  1.000000
 
  5 S  2.49480140E+00  1.000000
 
  6 S  5.43359480E-01  1.000000
 
  7 S  1.94343660E-01  1.000000
 
  8 P  6.81068790E+02  0.002366
  8 P  1.61113590E+02  0.018941
  8 P  5.13866370E+01  0.087845
  8 P  1.89585120E+01  0.257074
  8 P  3.00351580E+00  0.371524
 
  9 P  7.45652930E+00  1.000000
 
 10 P  1.06093610E+00  1.000000
 
 11 P  3.94520230E-01  1.000000
 
 12 P  1.33232790E-01  1.000000
 
  H (Hydrogen)
  ------------
            Exponent  Coefficients 
       -------------- ---------------------------------------------------------
  1 S  3.40613410E+01  0.006025
  1 S  5.12357460E+00  0.045021
  1 S  1.16466260E+00  0.201897
 
  2 S  3.27230410E-01  1.000000
 
  3 S  1.03072410E-01  1.000000
 


 Summary of "ao basis" -> "ao basis" (spherical)
 ------------------------------------------------------------------------------
       Tag                 Description            Shells   Functions and Types
 ---------------- ------------------------------  ------  ---------------------
 C                        ahlrichs vtz               9       15   6s3p
 O                        ahlrichs vtz               9       15   6s3p
 Cl                       ahlrichs vtz              12       22   7s5p
 H                        ahlrichs vtz               3        3   3s




 Summary of "ao basis" -> "ao basis" (spherical)
 ------------------------------------------------------------------------------
       Tag                 Description            Shells   Functions and Types
 ---------------- ------------------------------  ------  ---------------------
 C                        ahlrichs vtz               9       15   6s3p
 O                        ahlrichs vtz               9       15   6s3p
 Cl                       ahlrichs vtz              12       22   7s5p
 H                        ahlrichs vtz               3        3   3s


  Caching 1-el integrals 
 
            General Information
            -------------------
          SCF calculation type: DFT
          Wavefunction type:  spin polarized.
          No. of atoms     :    11
          No. of electrons :    63
           Alpha electrons :    32
            Beta electrons :    31
          Charge           :     2
          Spin multiplicity:     2
          Use of symmetry is: off; symmetry adaption is: off
          Maximum number of iterations: ***
          This is a Direct SCF calculation.
          AO basis - number of functions:   119
                     number of shells:    75
          Convergence on energy requested:  1.00D-08
          Convergence on density requested:  1.00D-07
          Convergence on gradient requested:  1.00D-06
 
              XC Information
              --------------
                        PBE96 Method XC Functional
          PerdewBurkeErnzerhof Exchange Functional  1.000          
            Perdew 1991 LDA Correlation Functional  1.000 local    
           PerdewBurkeErnz. Correlation Functional  1.000 non-local
 
             Grid Information
             ----------------
          Grid used for XC integration:  fine      
          Radial quadrature: Mura-Knowles        
          Angular quadrature: Lebedev. 
          Tag              B.-S. Rad. Rad. Pts. Rad. Cut. Ang. Pts.
          ---              ---------- --------- --------- ---------
          C                   0.70       70          11.0       590
          O                   0.60       70          10.0       590
          Cl                  1.00      123          13.0       770
          H                   0.35       60          12.0       590
          Grid pruning is: on 
          Number of quadrature shells:   826
          Spatial weights used:  Erf1
 
          Convergence Information
          -----------------------
          Convergence aids based upon iterative change in 
          total energy or number of iterations. 
          Levelshifting, if invoked, occurs when the 
          HOMO/LUMO gap drops below (HL_TOL):  1.00D-02
          DIIS, if invoked, will attempt to extrapolate 
          using up to (NFOCK): 10 stored Fock matrices.

                    Damping( 0%)  Levelshifting(0.5)       DIIS
                  --------------- ------------------- ---------------
          dE  on:    start            ASAP                start   
          dE off:    2 iters        *** iters           *** iters 

 
      Screening Tolerance Information
      -------------------------------
          Density screening/tol_rho:  1.00D-12
          AO Gaussian exp screening on grid/accAOfunc:  18
          CD Gaussian exp screening on grid/accCDfunc:  20
          XC Gaussian exp screening on grid/accXCfunc:  20
          Schwarz screening/accCoul:  1.00D-12

      Dispersion Parameters
      ---------------------

           DFT-D3BJ Model   
          s6 scale factor  :        1.000000000000
          s8 scale factor  :        0.787500000000
          a1 parameter     :        0.428900000000
          a2 parameter     :        4.440700000000
              vdW contrib  :       -0.010026732403


 Forcing the number of linearly dependent vectors to be  0
 
      Superposition of Atomic Density Guess
      -------------------------------------
 
 Sum of atomic energies:       -1109.25882515
   Time after variat. SCF:      0.2
   Time prior to 1st pass:      0.2

 Grid_pts file          = ./07_ClCH2COHCH2Cl.gridpts.00
 Record size in doubles =  12289        No. of grid_pts per rec  =   3070
 Max. records in memory =     17        Max. recs in file   =  67550051

 Grid integrated density:      65.000001412039
 Requested integration accuracy:   0.10E-06

           Memory utilization after 1st SCF pass: 
           Heap Space remaining (MW):        0.00                 468
          Stack Space remaining (MW):      288.36           288356940

   convergence    iter        energy       DeltaE   RMS-Dens  Diis-err    time
 ---------------- ----- ----------------- --------- --------- ---------  ------
 d= 0,ls=0.0,diis     1  -1113.2093083259 -1.45D+03  1.17D-02  1.50D+01     0.5
                                                     1.21D-02  1.40D+01
 d= 0,ls=0.5,diis     2  -1111.4204595214  1.79D+00  4.13D-03  1.59D-01     1.0
                                                     4.05D-03  1.57D-01
 d= 0,ls=0.5,diis     3  -1111.4695780864 -4.91D-02  1.39D-03  7.97D-02     1.5
                                                     1.39D-03  8.04D-02
 d= 0,ls=0.5,diis     4  -1111.4914183926 -2.18D-02  5.11D-04  7.66D-03     2.0
                                                     5.34D-04  7.96D-03
 d= 0,ls=0.5,diis     5  -1111.4947447381 -3.33D-03  1.74D-04  9.75D-04     2.5
                                                     1.81D-04  1.05D-03
 d= 0,ls=0.5,diis     6  -1111.4951858420 -4.41D-04  6.20D-05  3.91D-05     3.0
                                                     6.69D-05  6.03D-05
 d= 0,ls=0.5,diis     7  -1111.4952290671 -4.32D-05  3.13D-05  7.28D-06     3.5
                                                     3.53D-05  1.38D-05
 d= 0,ls=0.5,diis     8  -1111.4952440506 -1.50D-05  1.48D-05  1.77D-06     4.0
                                                     2.26D-05  6.10D-06
 d= 0,ls=0.5,diis     9  -1111.4952512596 -7.21D-06  9.38D-06  6.99D-07     4.5
                                                     1.60D-05  3.11D-06
 d= 0,ls=0.5,diis    10  -1111.4952553122 -4.05D-06  6.29D-06  2.94D-07     5.0
                                                     1.20D-05  1.73D-06
 d= 0,ls=0.5,diis    11  -1111.4952577039 -2.39D-06  4.87D-06  1.07D-07     5.4
                                                     9.47D-06  1.04D-06
 d= 0,ls=0.5,diis    12  -1111.4952591376 -1.43D-06  2.73D-06  8.63D-08     5.9
                                                     7.53D-06  7.39D-07
 d= 0,ls=0.5,diis    13  -1111.4952600992 -9.62D-07  1.99D-06  5.70D-08     6.4
                                                     6.18D-06  5.07D-07
 d= 0,ls=0.5,diis    14  -1111.4952607501 -6.51D-07  1.40D-06  4.42D-08     6.9
                                                     5.16D-06  3.69D-07
 d= 0,ls=0.5,diis    15  -1111.4952612242 -4.74D-07  1.10D-06  3.03D-08     7.4
                                                     4.45D-06  2.60D-07
 d= 0,ls=0.5,diis    16  -1111.4952615753 -3.51D-07  8.29D-07  2.05D-08     7.9
                                                     3.92D-06  1.99D-07
 d= 0,ls=0.5,diis    17  -1111.4952618453 -2.70D-07  8.89D-07  1.79D-08     8.4
                                                     3.51D-06  1.60D-07
 d= 0,ls=0.5,diis    18  -1111.4952620554 -2.10D-07  4.92D-07  2.17D-08     8.9
                                                     3.21D-06  1.46D-07
 d= 0,ls=0.5,diis    19  -1111.4952622406 -1.85D-07  5.57D-07  1.91D-08     9.4
                                                     3.02D-06  1.28D-07
 d= 0,ls=0.5,diis    20  -1111.4952624116 -1.71D-07  7.01D-07  1.23D-08     9.9
                                                     2.83D-06  1.03D-07
 d= 0,ls=0.5,diis    21  -1111.4952625582 -1.47D-07  3.73D-07  1.19D-08    10.4
                                                     2.72D-06  9.16D-08
 d= 0,ls=0.5,diis    22  -1111.4952626943 -1.36D-07  5.00D-07  9.71D-09    10.9
                                                     2.61D-06  8.10D-08
 d= 0,ls=0.5,diis    23  -1111.4952628162 -1.22D-07  4.78D-07  1.15D-08    11.4
                                                     2.54D-06  7.81D-08
 d= 0,ls=0.5,diis    24  -1111.4952629283 -1.12D-07  4.09D-07  1.59D-08    11.9
                                                     2.45D-06  8.04D-08
 d= 0,ls=0.5,diis    25  -1111.4952630367 -1.08D-07  2.49D-07  1.67D-08    12.4
                                                     2.39D-06  7.75D-08
 d= 0,ls=0.5,diis    26  -1111.4952631409 -1.04D-07  3.02D-07  1.62D-08    12.8
                                                     2.33D-06  7.44D-08
 d= 0,ls=0.5,diis    27  -1111.4952632415 -1.01D-07  4.67D-07  1.53D-08    13.3
                                                     2.29D-06  7.03D-08
 d= 0,ls=0.5,diis    28  -1111.4952633399 -9.84D-08  5.74D-07  1.30D-08    13.8
                                                     2.23D-06  6.29D-08
 d= 0,ls=0.5,diis    29  -1111.4952634313 -9.14D-08  3.33D-07  1.39D-08    14.3
                                                     2.18D-06  5.85D-08
 d= 0,ls=0.5,diis    30  -1111.4952635200 -8.87D-08  2.05D-07  1.26D-08    14.8
                                                     2.16D-06  5.35D-08
 d= 0,ls=0.5,diis    31  -1111.4952636069 -8.69D-08  4.99D-07  9.28D-09    15.3
                                                     2.09D-06  5.03D-08
 d= 0,ls=0.5,diis    32  -1111.4952636849 -7.80D-08  6.36D-07  1.20D-08    15.8
                                                     2.05D-06  5.08D-08
 d= 0,ls=0.5,diis    33  -1111.4952637535 -6.86D-08  8.62D-07  2.20D-08    16.3
                                                     2.00D-06  5.94D-08
 d= 0,ls=0.5,diis    34  -1111.4952638125 -5.89D-08  3.77D-07  3.87D-08    16.8
                                                     1.96D-06  7.39D-08
 d= 0,ls=0.5,diis    35  -1111.4952638703 -5.79D-08  3.95D-07  5.06D-08    17.2
                                                     1.91D-06  8.86D-08
 d= 0,ls=0.5,diis    36  -1111.4952639247 -5.44D-08  1.98D-07  6.21D-08    17.7
                                                     1.90D-06  1.03D-07
 d= 0,ls=0.5,diis    37  -1111.4952639792 -5.44D-08  1.86D-07  6.92D-08    18.2
                                                     1.85D-06  1.17D-07
 d= 0,ls=0.5,diis    38  -1111.4952640335 -5.43D-08  8.20D-07  7.53D-08    18.7
                                                     1.79D-06  1.27D-07
 d= 0,ls=0.5,diis    39  -1111.4952640920 -5.85D-08  1.65D-06  7.63D-08    19.2
                                                     1.98D-06  1.22D-07
 d= 0,ls=0.5,diis    40  -1111.4952641766 -8.46D-08  1.17D-06  4.50D-08    19.7
                                                     2.07D-06  9.76D-08
 d= 0,ls=0.5,diis    41  -1111.4952642711 -9.45D-08  7.09D-07  9.66D-09    20.2
                                                     1.84D-06  5.11D-08
 d= 0,ls=0.5,diis    42  -1111.4952643359 -6.47D-08  2.98D-07  6.09D-09    20.7
                                                     1.82D-06  4.17D-08
 d= 0,ls=0.5,diis    43  -1111.4952643990 -6.32D-08  1.83D-06  2.24D-09    21.2
                                                     1.77D-06  3.22D-08
 d= 0,ls=0.5,diis    44  -1111.4952644440 -4.50D-08  5.01D-07  1.70D-08    21.7
                                                     1.76D-06  3.69D-08
 d= 0,ls=0.5,diis    45  -1111.4952644974 -5.34D-08  8.95D-07  1.29D-08    22.2
                                                     1.65D-06  3.36D-08
 d= 0,ls=0.5,diis    46  -1111.4952645373 -3.99D-08  1.35D-06  2.57D-08    22.7
                                                     1.78D-06  4.15D-08
 d= 0,ls=0.5,diis    47  -1111.4952645928 -5.55D-08  9.66D-07  1.30D-08    23.1
                                                     1.71D-06  3.73D-08
 d= 0,ls=0.5,diis    48  -1111.4952646462 -5.34D-08  5.27D-07  6.13D-09    23.6
                                                     1.65D-06  3.15D-08
 d= 0,ls=0.5,diis    49  -1111.4952646971 -5.09D-08  4.67D-07  8.05D-10    24.1
                                                     1.59D-06  2.43D-08
 d= 0,ls=0.5,diis    50  -1111.4952647421 -4.50D-08  6.72D-07  5.73D-10    24.6
                                                     1.56D-06  2.28D-08
 d= 0,ls=0.5,diis    51  -1111.4952647809 -3.87D-08  6.13D-07  5.46D-09    25.1
                                                     1.53D-06  2.72D-08
 d= 0,ls=0.5,diis    52  -1111.4952648135 -3.27D-08  1.95D-07  1.45D-08    25.6
                                                     1.51D-06  3.68D-08
 d= 0,ls=0.5,diis    53  -1111.4952648461 -3.26D-08  1.68D-07  2.08D-08    26.1
                                                     1.47D-06  4.58D-08
 d= 0,ls=0.5,diis    54  -1111.4952648767 -3.06D-08  4.25D-07  2.73D-08    26.6
                                                     1.46D-06  5.54D-08
 d= 0,ls=0.5,diis    55  -1111.4952649197 -4.30D-08  7.89D-07  1.87D-08    27.1
                                                     1.51D-06  4.57D-08
 d= 0,ls=0.5,diis    56  -1111.4952649641 -4.45D-08  3.41D-07  9.98D-09    27.6
                                                     1.46D-06  3.51D-08
 d= 0,ls=0.5,diis    57  -1111.4952650062 -4.21D-08  1.08D-06  4.19D-09    28.1
                                                     1.45D-06  2.57D-08
 d= 0,ls=0.5,diis    58  -1111.4952650438 -3.76D-08  5.72D-07  1.74D-09    28.6
                                                     1.39D-06  1.98D-08
 d= 0,ls=0.5,diis    59  -1111.4952650764 -3.26D-08  3.12D-07  3.46D-09    29.0
                                                     1.37D-06  1.88D-08
 d= 0,ls=0.5,diis    60  -1111.4952651055 -2.91D-08  2.88D-07  7.29D-09    29.6
                                                     1.35D-06  2.20D-08
 d= 0,ls=0.5,diis    61  -1111.4952651360 -3.05D-08  1.02D-06  7.18D-09    30.1
                                                     1.28D-06  2.30D-08
 d= 0,ls=0.5,diis    62  -1111.4952651609 -2.49D-08  3.33D-07  1.31D-08    30.5
                                                     1.24D-06  2.60D-08
 d= 0,ls=0.5,diis    63  -1111.4952651911 -3.02D-08  8.84D-07  8.90D-09    31.0
                                                     1.32D-06  2.23D-08
 d= 0,ls=0.5,diis    64  -1111.4952652234 -3.22D-08  4.43D-07  3.69D-09    31.5
                                                     1.29D-06  1.92D-08
 d= 0,ls=0.5,diis    65  -1111.4952652541 -3.07D-08  4.25D-07  3.56D-10    32.0
                                                     1.24D-06  1.43D-08
 d= 0,ls=0.5,diis    66  -1111.4952652797 -2.56D-08  3.51D-07  1.97D-09    32.5
                                                     1.19D-06  1.51D-08
 d= 0,ls=0.5,diis    67  -1111.4952653031 -2.35D-08  5.93D-07  4.53D-09    33.0
                                                     1.15D-06  1.73D-08
 d= 0,ls=0.5,diis    68  -1111.4952653247 -2.16D-08  4.46D-07  7.80D-09    33.5
                                                     1.12D-06  1.94D-08
 d= 0,ls=0.5,diis    69  -1111.4952653443 -1.96D-08  8.70D-07  1.21D-08    34.0
                                                     1.21D-06  2.29D-08
 d= 0,ls=0.5,diis    70  -1111.4952653694 -2.51D-08  5.34D-07  8.33D-09    34.5
                                                     1.18D-06  2.28D-08
 d= 0,ls=0.5,diis    71  -1111.4952653958 -2.64D-08  2.95D-07  4.42D-09    35.0
                                                     1.15D-06  1.82D-08
 d= 0,ls=0.5,diis    72  -1111.4952654212 -2.54D-08  6.10D-07  1.39D-09    35.5
                                                     1.16D-06  1.36D-08
 d= 0,ls=0.5,diis    73  -1111.4952654442 -2.30D-08  5.65D-07  4.00D-10    36.0
                                                     1.13D-06  1.12D-08
 d= 0,ls=0.5,diis    74  -1111.4952654628 -1.86D-08  3.16D-07  3.48D-09    36.4
                                                     1.07D-06  1.35D-08
 d= 0,ls=0.5,diis    75  -1111.4952654800 -1.72D-08  1.18D-07  6.49D-09    36.9
                                                     1.06D-06  1.65D-08
 d= 0,ls=0.5,diis    76  -1111.4952654961 -1.61D-08  2.25D-07  9.38D-09    37.4
                                                     1.03D-06  2.07D-08
 d= 0,ls=0.5,diis    77  -1111.4952655148 -1.87D-08  3.58D-07  8.37D-09    37.9
                                                     9.94D-07  2.04D-08
 d= 0,ls=0.5,diis    78  -1111.4952655306 -1.58D-08  6.80D-07  1.04D-08    38.4
                                                     1.07D-06  2.26D-08
 d= 0,ls=0.5,diis    79  -1111.4952655540 -2.34D-08  3.04D-07  3.59D-09    38.9
                                                     9.95D-07  1.49D-08
 d= 0,ls=0.5,diis    80  -1111.4952655741 -2.01D-08  3.21D-07  8.85D-10    39.4
                                                     9.73D-07  1.06D-08
 d= 0,ls=0.5,diis    81  -1111.4952655919 -1.77D-08  1.99D-07  3.98D-10    39.9
                                                     9.68D-07  8.88D-09
 d= 0,ls=0.5,diis    82  -1111.4952656078 -1.59D-08  1.40D-07  1.33D-09    40.4
                                                     9.47D-07  9.24D-09
 d= 0,ls=0.5,diis    83  -1111.4952656224 -1.46D-08  1.32D-07  2.82D-09    40.9
                                                     9.24D-07  1.08D-08
 d= 0,ls=0.5,diis    84  -1111.4952656366 -1.42D-08  1.45D-07  3.78D-09    41.3
                                                     9.10D-07  1.19D-08
 d= 0,ls=0.5,diis    85  -1111.4952656513 -1.47D-08  7.00D-07  3.59D-09    41.8
                                                     8.95D-07  1.19D-08
 d= 0,ls=0.5,diis    86  -1111.4952656654 -1.41D-08  6.34D-07  3.56D-09    42.3
                                                     9.39D-07  1.04D-08
 d= 0,ls=0.5,diis    87  -1111.4952656815 -1.60D-08  2.18D-07  8.48D-10    42.8
                                                     8.89D-07  8.27D-09
 d= 0,ls=0.5,diis    88  -1111.4952656958 -1.44D-08  4.17D-07  1.22D-10    43.3
                                                     8.83D-07  6.97D-09
 d= 0,ls=0.5,diis    89  -1111.4952657080 -1.22D-08  4.08D-07  1.37D-09    43.8
                                                     8.52D-07  7.78D-09
 d= 0,ls=0.5,diis    90  -1111.4952657185 -1.05D-08  2.07D-07  3.84D-09    44.3
                                                     8.28D-07  9.99D-09
 d= 0,ls=0.5,diis    91  -1111.4952657284 -9.98D-09  2.49D-07  5.88D-09    44.8
                                                     8.35D-07  1.23D-08
 d= 0,ls=0.5,diis    92  -1111.4952657395 -1.10D-08  4.50D-07  6.10D-09    45.3
                                                     8.47D-07  1.38D-08
 d= 0,ls=0.5,diis    93  -1111.4952657524 -1.29D-08  2.68D-07  4.35D-09    45.8
                                                     8.19D-07  1.22D-08
 d= 0,ls=0.5,diis    94  -1111.4952657656 -1.32D-08  1.89D-07  2.42D-09    46.3
                                                     7.98D-07  9.45D-09
 d= 0,ls=0.5,diis    95  -1111.4952657783 -1.26D-08  3.30D-07  9.11D-10    46.7
                                                     7.75D-07  7.13D-09
 d= 0,ls=0.5,diis    96  -1111.4952657899 -1.16D-08  4.20D-07  1.18D-10    47.2
                                                     7.79D-07  5.73D-09
 d= 0,ls=0.5,diis    97  -1111.4952657999 -1.00D-08  2.13D-07  8.29D-10    47.7
                                                     7.58D-07  5.80D-09
 d= 0,ls=0.5,diis    98  -1111.4952658086 -8.68D-09  1.24D-07  2.38D-09    48.2
                                                     7.37D-07  7.29D-09
 d= 0,ls=0.5,diis    99  -1111.4952658168 -8.18D-09  2.39D-07  3.79D-09    48.7
                                                     7.37D-07  9.03D-09
 d= 0,ls=0.5,diis   100  -1111.4952658265 -9.79D-09  2.55D-07  2.88D-09    49.2
                                                     7.38D-07  8.48D-09
 d= 0,ls=0.5,diis   101  -1111.4952658369 -1.04D-08  2.09D-07  1.55D-09    49.7
                                                     7.22D-07  6.81D-09
 d= 0,ls=0.5,diis   102  -1111.4952658469 -9.95D-09  3.69D-07  3.90D-10    50.2
                                                     7.14D-07  5.15D-09
 d= 0,ls=0.5,diis   103  -1111.4952658557 -8.89D-09  2.28D-07  1.68D-10    50.7
                                                     6.95D-07  4.47D-09
 d= 0,ls=0.5,diis   104  -1111.4952658635 -7.79D-09  1.54D-07  8.53D-10    51.2
                                                     6.83D-07  4.95D-09
 d= 0,ls=0.5,diis   105  -1111.4952658706 -7.04D-09  6.64D-08  1.98D-09    51.7
                                                     6.64D-07  6.17D-09
 d= 0,ls=0.5,diis   106  -1111.4952658777 -7.12D-09  1.85D-07  2.52D-09    52.2
                                                     6.41D-07  6.95D-09
 d= 0,ls=0.5,diis   107  -1111.4952658845 -6.79D-09  2.29D-07  3.15D-09    52.7
                                                     6.34D-07  7.65D-09
 d= 0,ls=0.5,diis   108  -1111.4952658927 -8.19D-09  3.69D-07  1.91D-09    53.1
                                                     6.58D-07  5.90D-09
 d= 0,ls=0.5,diis   109  -1111.4952659010 -8.30D-09  3.50D-07  5.05D-10    53.6
                                                     6.30D-07  4.49D-09
 d= 0,ls=0.5,diis   110  -1111.4952659082 -7.18D-09  1.62D-07  3.85D-10    54.1
                                                     6.16D-07  3.78D-09
 d= 0,ls=0.5,diis   111  -1111.4952659145 -6.37D-09  7.79D-08  8.96D-10    54.6
                                                     6.07D-07  4.06D-09
 d= 0,ls=0.5,diis   112  -1111.4952659204 -5.92D-09  1.84D-07  1.52D-09    55.1
                                                     5.87D-07  4.81D-09
 d= 0,ls=0.5,diis   113  -1111.4952659261 -5.63D-09  3.06D-07  2.16D-09    55.6
                                                     5.68D-07  5.41D-09
 d= 0,ls=0.5,diis   114  -1111.4952659309 -4.87D-09  4.65D-07  3.43D-09    56.1
                                                     6.14D-07  6.41D-09
 d= 0,ls=0.5,diis   115  -1111.4952659379 -6.97D-09  1.38D-07  1.83D-09    56.6
                                                     5.74D-07  5.52D-09
 d= 0,ls=0.5,diis   116  -1111.4952659444 -6.48D-09  1.79D-07  1.02D-09    57.1
                                                     5.91D-07  4.47D-09
 d= 0,ls=0.5,diis   117  -1111.4952659510 -6.58D-09  1.92D-07  1.31D-10    57.6
                                                     5.73D-07  3.15D-09
 d= 0,ls=0.5,diis   118  -1111.4952659566 -5.64D-09  2.83D-07  1.33D-10    58.1
                                                     5.50D-07  2.85D-09
 d= 0,ls=0.5,diis   119  -1111.4952659614 -4.74D-09  2.25D-07  8.37D-10    58.5
                                                     5.25D-07  3.35D-09
 d= 0,ls=0.5,diis   120  -1111.4952659658 -4.49D-09  1.18D-07  1.49D-09    59.0
                                                     5.42D-07  3.81D-09
 d= 0,ls=0.5,diis   121  -1111.4952659702 -4.38D-09  1.92D-07  1.90D-09    59.5
                                                     5.33D-07  4.61D-09
 d= 0,ls=0.5,diis   122  -1111.4952659752 -4.93D-09  1.02D-07  1.63D-09    60.0
                                                     5.09D-07  4.58D-09
 d= 0,ls=0.5,diis   123  -1111.4952659800 -4.83D-09  2.01D-07  1.39D-09    60.5
                                                     5.24D-07  4.28D-09
 d= 0,ls=0.5,diis   124  -1111.4952659853 -5.34D-09  1.32D-07  5.21D-10    61.0
                                                     5.04D-07  3.16D-09
 d= 0,ls=0.5,diis   125  -1111.4952659903 -4.93D-09  2.39D-07  8.46D-11    61.5
                                                     4.97D-07  2.43D-09
 d= 0,ls=0.5,diis   126  -1111.4952659946 -4.32D-09  1.83D-07  1.78D-10    62.0
                                                     4.89D-07  2.30D-09
 d= 0,ls=0.5,diis   127  -1111.4952659982 -3.66D-09  7.82D-08  7.95D-10    62.5
                                                     4.75D-07  2.82D-09
 d= 0,ls=0.5,diis   128  -1111.4952660017 -3.47D-09  9.47D-08  1.34D-09    63.0
                                                     4.69D-07  3.48D-09
 d= 0,ls=0.5,diis   129  -1111.4952660056 -3.92D-09  1.46D-07  1.18D-09    63.4
                                                     4.71D-07  3.45D-09
 d= 0,ls=0.5,diis   130  -1111.4952660099 -4.24D-09  1.07D-07  6.37D-10    63.9
                                                     4.65D-07  2.83D-09
 d= 0,ls=0.5,diis   131  -1111.4952660140 -4.13D-09  3.08D-07  2.13D-10    64.4
                                                     4.60D-07  2.21D-09
 d= 0,ls=0.5,diis   132  -1111.4952660176 -3.64D-09  1.67D-07  1.48D-10    64.9
                                                     4.41D-07  1.93D-09
 d= 0,ls=0.5,diis   133  -1111.4952660209 -3.25D-09  1.22D-07  4.17D-10    65.4
                                                     4.41D-07  2.06D-09
 d= 0,ls=0.5,diis   134  -1111.4952660238 -2.88D-09  5.17D-08  9.03D-10    65.9
                                                     4.30D-07  2.55D-09
 d= 0,ls=0.5,diis   135  -1111.4952660265 -2.74D-09  1.08D-07  1.35D-09    66.4
                                                     4.27D-07  3.15D-09
 d= 0,ls=0.5,diis   136  -1111.4952660296 -3.10D-09  8.39D-08  1.27D-09    66.9
                                                     4.18D-07  3.23D-09
 d= 0,ls=0.5,diis   137  -1111.4952660328 -3.16D-09  1.41D-07  1.08D-09    67.4
                                                     4.18D-07  3.07D-09
 d= 0,ls=0.5,diis   138  -1111.4952660362 -3.37D-09  1.13D-07  6.48D-10    67.9
                                                     4.11D-07  2.52D-09
 d= 0,ls=0.5,diis   139  -1111.4952660396 -3.40D-09  2.63D-07  1.66D-10    68.4
                                                     4.08D-07  1.80D-09
 d= 0,ls=0.5,diis   140  -1111.4952660425 -2.96D-09  1.62D-07  1.18D-10    68.8
                                                     3.98D-07  1.52D-09
 d= 0,ls=0.5,diis   141  -1111.4952660450 -2.46D-09  1.00D-07  4.91D-10    69.3
                                                     3.88D-07  1.77D-09
 d= 0,ls=0.5,diis   142  -1111.4952660471 -2.14D-09  8.83D-08  1.03D-09    69.8
                                                     3.75D-07  2.35D-09
 d= 0,ls=0.5,diis   143  -1111.4952660497 -2.58D-09  1.23D-07  8.49D-10    70.3
                                                     3.75D-07  2.20D-09
 d= 0,ls=0.5,diis   144  -1111.4952660523 -2.58D-09  1.00D-07  6.62D-10    70.8
                                                     3.73D-07  2.11D-09
 d= 0,ls=0.5,diis   145  -1111.4952660550 -2.74D-09  1.09D-07  2.58D-10    71.3
                                                     3.68D-07  1.61D-09
 d= 0,ls=0.5,diis   146  -1111.4952660575 -2.54D-09  1.21D-07  6.53D-11    71.8
                                                     3.62D-07  1.28D-09
 d= 0,ls=0.5,diis   147  -1111.4952660598 -2.27D-09  1.18D-07  1.11D-10    72.3
                                                     3.58D-07  1.23D-09
 d= 0,ls=0.5,diis   148  -1111.4952660618 -2.00D-09  7.08D-08  3.78D-10    72.8
                                                     3.50D-07  1.45D-09
 d= 0,ls=0.5,diis   149  -1111.4952660637 -1.85D-09  7.75D-08  6.82D-10    73.3
                                                     3.42D-07  1.79D-09
 d= 0,ls=0.5,diis   150  -1111.4952660653 -1.69D-09  5.99D-08  1.03D-09    73.8
                                                     3.32D-07  2.21D-09
 d= 0,ls=0.5,diis   151  -1111.4952660670 -1.69D-09  1.34D-07  1.29D-09    74.3
                                                     3.36D-07  2.55D-09
 d= 0,ls=0.5,diis   152  -1111.4952660695 -2.47D-09  1.35D-07  5.48D-10    74.8
                                                     3.35D-07  1.70D-09
 d= 0,ls=0.5,diis   153  -1111.4952660718 -2.26D-09  8.30D-08  1.70D-10    75.2
                                                     3.27D-07  1.24D-09
 d= 0,ls=0.5,diis   154  -1111.4952660738 -2.02D-09  1.48D-07  4.39D-11    75.7
                                                     3.12D-07  9.85D-10
 d= 0,ls=0.5,diis   155  -1111.4952660755 -1.70D-09  1.40D-07  1.79D-10    76.2
                                                     3.01D-07  1.02D-09
 d= 0,ls=0.5,diis   156  -1111.4952660771 -1.58D-09  1.11D-07  3.45D-10    76.7
                                                     3.12D-07  1.08D-09
 d= 0,ls=0.5,diis   157  -1111.4952660788 -1.71D-09  3.74D-08  2.59D-10    77.2
                                                     3.00D-07  1.08D-09
 d= 0,ls=0.5,diis   158  -1111.4952660803 -1.52D-09  2.30D-07  3.86D-10    77.7
                                                     2.91D-07  1.22D-09
 d= 0,ls=0.5,diis   159  -1111.4952660816 -1.27D-09  1.68D-07  7.41D-10    78.2
                                                     3.00D-07  1.42D-09
 d= 0,ls=0.5,diis   160  -1111.4952660833 -1.72D-09  1.82D-07  4.05D-10    78.7
                                                     3.08D-07  1.23D-09
 d= 0,ls=0.5,diis   161  -1111.4952660851 -1.77D-09  6.70D-08  1.13D-10    79.2
                                                     2.93D-07  9.33D-10
 d= 0,ls=0.5,diis   162  -1111.4952660866 -1.58D-09  1.73D-07  1.56D-11    79.7
                                                     2.99D-07  7.70D-10
 d= 0,ls=0.5,diis   163  -1111.4952660880 -1.36D-09  1.09D-07  1.11D-10    80.2
                                                     2.84D-07  8.05D-10
 d= 0,ls=0.5,diis   164  -1111.4952660891 -1.14D-09  3.62D-08  3.74D-10    80.6
                                                     2.73D-07  1.06D-09
 d= 0,ls=0.5,diis   165  -1111.4952660903 -1.20D-09  4.65D-08  4.64D-10    81.1
                                                     2.66D-07  1.20D-09
 d= 0,ls=0.5,diis   166  -1111.4952660916 -1.28D-09  1.73D-07  4.08D-10    81.6
                                                     2.55D-07  1.16D-09
 d= 0,ls=0.5,diis   167  -1111.4952660928 -1.21D-09  1.55D-07  4.37D-10    82.1
                                                     2.70D-07  1.06D-09
 d= 0,ls=0.5,diis   168  -1111.4952660942 -1.39D-09  6.28D-08  1.61D-10    82.6
                                                     2.59D-07  8.40D-10
 d= 0,ls=0.5,diis   169  -1111.4952660955 -1.28D-09  1.42D-07  6.68D-11    83.1
                                                     2.59D-07  7.08D-10
 d= 0,ls=0.5,diis   170  -1111.4952660967 -1.16D-09  9.16D-08  8.73D-11    83.6
                                                     2.49D-07  6.35D-10
 d= 0,ls=0.5,diis   171  -1111.4952660976 -9.70D-10  3.93D-08  2.48D-10    84.1
                                                     2.46D-07  7.60D-10
 d= 0,ls=0.5,diis   172  -1111.4952660986 -9.98D-10  2.66D-08  3.02D-10    84.6
                                                     2.42D-07  8.62D-10
 d= 0,ls=0.5,diis   173  -1111.4952660996 -9.77D-10  4.47D-08  3.46D-10    85.0
                                                     2.38D-07  9.48D-10
 d= 0,ls=0.5,diis   174  -1111.4952661006 -1.03D-09  6.66D-08  3.01D-10    85.5
                                                     2.40D-07  9.20D-10
 d= 0,ls=0.5,diis   175  -1111.4952661018 -1.13D-09  6.04D-08  1.29D-10    86.0
                                                     2.39D-07  6.98D-10
 d= 0,ls=0.5,diis   176  -1111.4952661028 -1.08D-09  1.05D-07  2.24D-11    86.5
                                                     2.31D-07  5.30D-10
 d= 0,ls=0.5,diis   177  -1111.4952661038 -9.40D-10  8.21D-08  3.06D-11    87.0
                                                     2.30D-07  4.96D-10
 d= 0,ls=0.5,diis   178  -1111.4952661046 -8.44D-10  5.41D-08  1.02D-10    87.5
                                                     2.26D-07  5.39D-10
 d= 0,ls=0.5,diis   179  -1111.4952661054 -7.40D-10  4.40D-08  2.47D-10    88.0
                                                     2.19D-07  6.97D-10
 d= 0,ls=0.5,diis   180  -1111.4952661061 -7.02D-10  6.95D-08  3.80D-10    88.5
                                                     2.17D-07  8.63D-10
 d= 0,ls=0.5,diis   181  -1111.4952661070 -8.99D-10  6.86D-08  2.44D-10    89.0
                                                     2.15D-07  7.39D-10
 d= 0,ls=0.5,diis   182  -1111.4952661079 -9.15D-10  4.17D-08  1.09D-10    89.5
                                                     2.08D-07  5.72D-10
 d= 0,ls=0.5,diis   183  -1111.4952661087 -8.49D-10  7.30D-08  3.93D-11    90.0
                                                     2.06D-07  4.63D-10
 d= 0,ls=0.5,diis   184  -1111.4952661095 -7.88D-10  1.20D-07  1.53D-11    90.5
                                                     2.05D-07  3.96D-10
 d= 0,ls=0.5,diis   185  -1111.4952661102 -6.50D-10  3.10D-08  1.20D-10    91.0
                                                     1.99D-07  4.60D-10
 d= 0,ls=0.5,diis   186  -1111.4952661108 -6.26D-10  4.29D-08  1.94D-10    91.5
                                                     1.98D-07  5.54D-10
 d= 0,ls=0.5,diis   187  -1111.4952661115 -6.69D-10  1.91D-07  1.89D-10    92.0
                                                     1.94D-07  5.77D-10
 d= 0,ls=0.5,diis   188  -1111.4952661119 -4.80D-10  9.19D-08  4.06D-10    92.5
                                                     1.91D-07  7.29D-10
 d= 0,ls=0.5,diis   189  -1111.4952661127 -7.38D-10  9.85D-08  2.13D-10    92.9
                                                     1.95D-07  5.84D-10
 d= 0,ls=0.5,diis   190  -1111.4952661134 -7.44D-10  5.85D-08  7.77D-11    93.4
                                                     1.93D-07  4.43D-10
 d= 0,ls=0.5,diis   191  -1111.4952661141 -6.90D-10  7.30D-08  1.01D-11    93.9
                                                     1.90D-07  3.29D-10
 d= 0,ls=0.5,diis   192  -1111.4952661147 -5.83D-10  1.12D-07  4.08D-11    94.4
                                                     1.77D-07  3.29D-10
 d= 0,ls=0.5,diis   193  -1111.4952661152 -5.04D-10  2.63D-08  1.24D-10    94.9
                                                     1.75D-07  3.75D-10
 d= 0,ls=0.5,diis   194  -1111.4952661157 -5.18D-10  4.97D-08  1.43D-10    95.4
                                                     1.78D-07  4.03D-10
 d= 0,ls=0.5,diis   195  -1111.4952661162 -5.20D-10  7.92D-08  1.48D-10    95.9
                                                     1.69D-07  4.44D-10
 d= 0,ls=0.5,diis   196  -1111.4952661167 -4.48D-10  1.22D-07  2.22D-10    96.4
                                                     1.80D-07  5.07D-10
 d= 0,ls=0.5,diis   197  -1111.4952661173 -6.14D-10  5.24D-08  8.66D-11    96.9
                                                     1.71D-07  3.85D-10
 d= 0,ls=0.5,diis   198  -1111.4952661179 -5.63D-10  6.28D-08  2.55D-11    97.4
                                                     1.66D-07  2.95D-10
 d= 0,ls=0.5,diis   199  -1111.4952661184 -5.10D-10  8.23D-08  3.70D-12    97.9
                                                     1.64D-07  2.47D-10
 d= 0,ls=0.5,diis   200  -1111.4952661188 -4.25D-10  4.66D-08  5.93D-11    98.4
                                                     1.59D-07  2.85D-10
 d= 0,ls=0.5,diis   201  -1111.4952661192 -3.81D-10  1.93D-08  1.33D-10    98.8
                                                     1.55D-07  3.62D-10
 d= 0,ls=0.5,diis   202  -1111.4952661196 -3.87D-10  4.57D-08  1.75D-10    99.3
                                                     1.54D-07  4.21D-10
 d= 0,ls=0.5,diis   203  -1111.4952661200 -4.67D-10  1.34D-07  1.05D-10    99.8
                                                     1.52D-07  3.39D-10
 d= 0,ls=0.5,diis   204  -1111.4952661204 -3.84D-10  4.79D-08  1.38D-10   100.3
                                                     1.38D-07  3.00D-10
 d= 0,ls=0.5,diis   205  -1111.4952661208 -3.61D-10  7.26D-08  1.54D-10   100.8
                                                     1.48D-07  2.96D-10
 d= 0,ls=0.5,diis   206  -1111.4952661212 -4.21D-10  5.86D-08  8.34D-11   101.3
                                                     1.50D-07  2.69D-10
 d= 0,ls=0.5,diis   207  -1111.4952661216 -4.30D-10  3.21D-08  2.52D-11   101.8
                                                     1.46D-07  2.12D-10
 d= 0,ls=0.5,diis   208  -1111.4952661220 -3.86D-10  3.47D-08  1.02D-11   102.3
                                                     1.43D-07  1.92D-10
 d= 0,ls=0.5,diis   209  -1111.4952661224 -3.43D-10  2.71D-08  3.03D-11   102.8
                                                     1.38D-07  2.04D-10
 d= 0,ls=0.5,diis   210  -1111.4952661227 -3.32D-10  5.30D-08  4.30D-11   103.2
                                                     1.40D-07  2.13D-10
 d= 0,ls=0.5,diis   211  -1111.4952661231 -3.58D-10  3.79D-08  1.71D-11   103.7
                                                     1.38D-07  1.90D-10
 d= 0,ls=0.5,diis   212  -1111.4952661234 -3.45D-10  7.78D-08  8.25D-13   104.2
                                                     1.35D-07  1.65D-10
 d= 0,ls=0.5,diis   213  -1111.4952661237 -2.88D-10  5.28D-08  3.23D-11   104.7
                                                     1.28D-07  1.92D-10
 d= 0,ls=0.5,diis   214  -1111.4952661240 -2.96D-10  6.25D-08  3.52D-11   105.2
                                                     1.26D-07  1.84D-10
 d= 0,ls=0.5,diis   215  -1111.4952661242 -2.35D-10  7.21D-08  9.40D-11   105.7
                                                     1.24D-07  2.37D-10
 d= 0,ls=0.5,diis   216  -1111.4952661244 -1.78D-10  2.09D-08  2.04D-10   106.2
                                                     1.21D-07  3.43D-10
 d= 0,ls=0.5,diis   217  -1111.4952661246 -2.01D-10  7.25D-08  2.54D-10   106.7
                                                     1.26D-07  4.21D-10
 d= 0,ls=0.5,diis   218  -1111.4952661249 -2.87D-10  7.73D-08  2.00D-10   107.2
                                                     1.28D-07  4.10D-10
 d= 0,ls=0.5,diis   219  -1111.4952661252 -3.25D-10  4.06D-08  1.29D-10   107.7
                                                     1.26D-07  3.36D-10
 d= 0,ls=0.5,diis   220  -1111.4952661255 -3.24D-10  3.18D-08  6.38D-11   108.2
                                                     1.23D-07  2.43D-10
 d= 0,ls=0.5,diis   221  -1111.4952661258 -3.02D-10  9.04D-08  1.97D-11   108.7
                                                     1.27D-07  1.70D-10
 d= 0,ls=0.5,diis   222  -1111.4952661261 -2.66D-10  4.47D-08  1.15D-11   109.2
                                                     1.20D-07  1.32D-10
 d= 0,ls=0.5,diis   223  -1111.4952661263 -2.15D-10  1.63D-08  4.45D-11   109.7
                                                     1.14D-07  1.52D-10
 d= 0,ls=0.5,diis   224  -1111.4952661265 -2.17D-10  2.63D-08  5.38D-11   110.2
                                                     1.13D-07  1.64D-10
 d= 0,ls=0.5,diis   225  -1111.4952661267 -2.19D-10  3.40D-08  5.22D-11   110.7
                                                     1.11D-07  1.68D-10
 d= 0,ls=0.5,diis   226  -1111.4952661270 -2.30D-10  3.12D-08  2.96D-11   111.2
                                                     1.10D-07  1.45D-10
 d= 0,ls=0.5,diis   227  -1111.4952661272 -2.29D-10  3.25D-08  5.46D-12   111.7
                                                     1.07D-07  1.13D-10
 d= 0,ls=0.5,diis   228  -1111.4952661274 -2.08D-10  5.61D-08  1.86D-12   112.2
                                                     1.04D-07  1.03D-10
 d= 0,ls=0.5,diis   229  -1111.4952661276 -1.76D-10  2.08D-08  2.49D-11   112.6
                                                     1.03D-07  1.22D-10
 d= 0,ls=0.5,diis   230  -1111.4952661278 -1.61D-10  9.96D-09  5.11D-11   113.1
                                                     1.01D-07  1.53D-10
 d= 0,ls=0.5,diis   231  -1111.4952661279 -1.58D-10  1.59D-08  7.49D-11   113.6
                                                     9.87D-08  1.87D-10


         Total DFT energy =    -1111.495266128070
      One electron energy =    -2179.542520289398
           Coulomb energy =      809.660928648708
          Exchange energy =      -79.531086604173
       Correlation energy =       -2.285183127983
 Nuclear repulsion energy =      340.212621977179

    Dispersion correction =       -0.010026732403

 Numeric. integr. density =       63.000000217089

     Total iterative time =    113.9s


 
                    DFT Final Alpha Molecular Orbital Analysis
                    ------------------------------------------
 
 Vector    1  Occ=1.000000D+00  E=-1.011353D+02
              MO Center=  2.6D+00, -9.2D-01, -2.7D-01, r^2= 3.1D-03
   Bfn.  Coefficient  Atom+Function         Bfn.  Coefficient  Atom+Function  
  ----- ------------  ---------------      ----- ------------  ---------------
    91      0.598208   8 Cl s                90      0.326061   8 Cl s         
    89      0.184382   8 Cl s         
 
 Vector    2  Occ=1.000000D+00  E=-1.011230D+02
              MO Center= -2.6D+00,  7.6D-01, -1.1D-01, r^2= 3.1D-03
   Bfn.  Coefficient  Atom+Function         Bfn.  Coefficient  Atom+Function  
  ----- ------------  ---------------      ----- ------------  ---------------
    63      0.598204   5 Cl s                62      0.326065   5 Cl s         
    61      0.184383   5 Cl s         
 
 Vector    3  Occ=1.000000D+00  E=-1.928375D+01
              MO Center= -9.0D-02, -2.0D-01, -1.1D+00, r^2= 1.5D-02
   Bfn.  Coefficient  Atom+Function         Bfn.  Coefficient  Atom+Function  
  ----- ------------  ---------------      ----- ------------  ---------------
    47      0.424654   4 O  s                48      0.366184   4 O  s         
    46      0.299514   4 O  s                49      0.055397   4 O  s         
 
 Vector    4  Occ=1.000000D+00  E=-1.048072D+01
              MO Center=  2.9D-02,  6.1D-02,  1.3D-01, r^2= 2.8D-02
   Bfn.  Coefficient  Atom+Function         Bfn.  Coefficient  Atom+Function  
  ----- ------------  ---------------      ----- ------------  ---------------
    17      0.424315   2 C  s                18      0.359533   2 C  s         
    16      0.308809   2 C  s                19      0.057419   2 C  s         
 
 Vector    5  Occ=1.000000D+00  E=-1.039523D+01
              MO Center=  1.4D+00, -7.9D-02,  7.6D-01, r^2= 2.8D-02
   Bfn.  Coefficient  Atom+Function         Bfn.  Coefficient  Atom+Function  
  ----- ------------  ---------------      ----- ------------  ---------------
    32      0.424315   3 C  s                33      0.359452   3 C  s         
    31      0.308838   3 C  s                34      0.057494   3 C  s         
 
 Vector    6  Occ=1.000000D+00  E=-1.039376D+01
              MO Center= -1.1D+00,  5.0D-01,  9.5D-01, r^2= 2.8D-02
   Bfn.  Coefficient  Atom+Function         Bfn.  Coefficient  Atom+Function  
  ----- ------------  ---------------      ----- ------------  ---------------
     2      0.424323   1 C  s                 3      0.359476   1 C  s         
     1      0.308842   1 C  s                 4      0.057362   1 C  s         
 
 Vector    7  Occ=1.000000D+00  E=-9.635101D+00
              MO Center=  2.6D+00, -9.2D-01, -2.7D-01, r^2= 6.6D-02
   Bfn.  Coefficient  Atom+Function         Bfn.  Coefficient  Atom+Function  
  ----- ------------  ---------------      ----- ------------  ---------------
    93      0.583048   8 Cl s                92      0.523337   8 Cl s         
    91     -0.293246   8 Cl s                90     -0.113743   8 Cl s         
    94      0.059799   8 Cl s                89     -0.054092   8 Cl s         
    95     -0.026752   8 Cl s         
 
 Vector    8  Occ=1.000000D+00  E=-9.623826D+00
              MO Center= -2.6D+00,  7.6D-01, -1.1D-01, r^2= 6.6D-02
   Bfn.  Coefficient  Atom+Function         Bfn.  Coefficient  Atom+Function  
  ----- ------------  ---------------      ----- ------------  ---------------
    65      0.583200   5 Cl s                64      0.523225   5 Cl s         
    63     -0.293231   5 Cl s                62     -0.113736   5 Cl s         
    66      0.059601   5 Cl s                61     -0.054089   5 Cl s         
    67     -0.026161   5 Cl s         
 
 Vector    9  Occ=1.000000D+00  E=-7.460524D+00
              MO Center=  2.6D+00, -9.2D-01, -2.7D-01, r^2= 5.8D-02
   Bfn.  Coefficient  Atom+Function         Bfn.  Coefficient  Atom+Function  
  ----- ------------  ---------------      ----- ------------  ---------------
    96      0.380895   8 Cl px               97     -0.309748   8 Cl py        
    99      0.287587   8 Cl px               98     -0.278674   8 Cl pz        
   100     -0.233839   8 Cl py              101     -0.210414   8 Cl pz        
   102      0.048117   8 Cl px              103     -0.039085   8 Cl py        
   104     -0.035219   8 Cl pz        
 
 Vector   10  Occ=1.000000D+00  E=-7.458307D+00
              MO Center=  2.6D+00, -9.2D-01, -2.7D-01, r^2= 5.8D-02
   Bfn.  Coefficient  Atom+Function         Bfn.  Coefficient  Atom+Function  
  ----- ------------  ---------------      ----- ------------  ---------------
    97      0.463471   8 Cl py              100      0.349701   8 Cl py        
    98     -0.266918   8 Cl pz              101     -0.201419   8 Cl pz        
    96      0.181534   8 Cl px               99      0.136997   8 Cl px        
   103      0.058073   8 Cl py              104     -0.033481   8 Cl pz        
 
 Vector   11  Occ=1.000000D+00  E=-7.449735D+00
              MO Center= -2.6D+00,  7.6D-01, -1.1D-01, r^2= 5.8D-02
   Bfn.  Coefficient  Atom+Function         Bfn.  Coefficient  Atom+Function  
  ----- ------------  ---------------      ----- ------------  ---------------
    68      0.454553   5 Cl px               71      0.343228   5 Cl px        
    70      0.320552   5 Cl pz               73      0.242045   5 Cl pz        
    69     -0.096229   5 Cl py               72     -0.072653   5 Cl py        
    74      0.057490   5 Cl px               76      0.040547   5 Cl pz        
 
 Vector   12  Occ=1.000000D+00  E=-7.443785D+00
              MO Center=  2.6D+00, -9.2D-01, -2.7D-01, r^2= 5.8D-02
   Bfn.  Coefficient  Atom+Function         Bfn.  Coefficient  Atom+Function  
  ----- ------------  ---------------      ----- ------------  ---------------
    98      0.412485   8 Cl pz               96      0.375393   8 Cl px        
   101      0.311265   8 Cl pz               99      0.283276   8 Cl px        
    97      0.090518   8 Cl py              100      0.068306   8 Cl py        
   104      0.051060   8 Cl pz              102      0.046464   8 Cl px        
 
 Vector   13  Occ=1.000000D+00  E=-7.442751D+00
              MO Center= -2.6D+00,  7.6D-01, -1.1D-01, r^2= 5.8D-02
   Bfn.  Coefficient  Atom+Function         Bfn.  Coefficient  Atom+Function  
  ----- ------------  ---------------      ----- ------------  ---------------
    69      0.529985   5 Cl py               72      0.399954   5 Cl py        
    68      0.174321   5 Cl px               71      0.131558   5 Cl px        
    70     -0.088120   5 Cl pz               73     -0.066495   5 Cl pz        
    75      0.066233   5 Cl py        
 
 Vector   14  Occ=1.000000D+00  E=-7.435261D+00
              MO Center= -2.6D+00,  7.6D-01, -1.1D-01, r^2= 5.8D-02
   Bfn.  Coefficient  Atom+Function         Bfn.  Coefficient  Atom+Function  
  ----- ------------  ---------------      ----- ------------  ---------------
    70      0.456571   5 Cl pz               73      0.344592   5 Cl pz        
    68     -0.285962   5 Cl px               71     -0.215824   5 Cl px        
    69      0.169971   5 Cl py               72      0.128283   5 Cl py        
    76      0.056783   5 Cl pz               74     -0.035547   5 Cl px        
 
 Vector   15  Occ=1.000000D+00  E=-1.486324D+00
              MO Center= -1.8D-01, -1.1D-01, -8.3D-01, r^2= 5.7D-01
   Bfn.  Coefficient  Atom+Function         Bfn.  Coefficient  Atom+Function  
  ----- ------------  ---------------      ----- ------------  ---------------
    50      0.508343   4 O  s                51      0.250906   4 O  s         
    20      0.205095   2 C  s                48     -0.139053   4 O  s         
    47     -0.115952   4 O  s                24     -0.113716   2 C  pz        
    49      0.109931   4 O  s                54      0.097832   4 O  pz        
    57      0.092022   4 O  pz               18     -0.070244   2 C  s         
 
 Vector   16  Occ=1.000000D+00  E=-1.233994D+00
              MO Center=  1.4D+00, -3.7D-01,  1.6D-01, r^2= 3.0D+00
   Bfn.  Coefficient  Atom+Function         Bfn.  Coefficient  Atom+Function  
  ----- ------------  ---------------      ----- ------------  ---------------
    94      0.446727   8 Cl s                95      0.325338   8 Cl s         
    35      0.311310   3 C  s                93     -0.268710   8 Cl s         
    92     -0.161224   8 Cl s                20      0.150360   2 C  s         
     5      0.142590   1 C  s                66      0.139681   5 Cl s         
    50     -0.120311   4 O  s                67      0.099234   5 Cl s         
 
 Vector   17  Occ=1.000000D+00  E=-1.220994D+00
              MO Center= -1.4D+00,  4.4D-01,  1.9D-01, r^2= 3.7D+00
   Bfn.  Coefficient  Atom+Function         Bfn.  Coefficient  Atom+Function  
  ----- ------------  ---------------      ----- ------------  ---------------
    66      0.473497   5 Cl s                67      0.367340   5 Cl s         
    65     -0.288289   5 Cl s                 5      0.284745   1 C  s         
    94     -0.216790   8 Cl s                64     -0.174440   5 Cl s         
    95     -0.166270   8 Cl s                93      0.130937   8 Cl s         
     6      0.098661   1 C  s                77      0.090818   5 Cl px        
 
 Vector   18  Occ=1.000000D+00  E=-1.145694D+00
              MO Center=  2.1D-01, -1.3D-02,  1.4D-01, r^2= 4.2D+00
   Bfn.  Coefficient  Atom+Function         Bfn.  Coefficient  Atom+Function  
  ----- ------------  ---------------      ----- ------------  ---------------
    94     -0.333174   8 Cl s                20      0.330076   2 C  s         
    66     -0.273472   5 Cl s                95     -0.261072   8 Cl s         
    67     -0.229023   5 Cl s                93      0.198880   8 Cl s         
    35      0.168417   3 C  s                65      0.165856   5 Cl s         
     5      0.147670   1 C  s                92      0.120280   8 Cl s         
 
 Vector   19  Occ=1.000000D+00  E=-1.056842D+00
              MO Center= -3.2D-01,  2.0D-01,  4.1D-01, r^2= 4.1D+00
   Bfn.  Coefficient  Atom+Function         Bfn.  Coefficient  Atom+Function  
  ----- ------------  ---------------      ----- ------------  ---------------
     5      0.342546   1 C  s                66     -0.297715   5 Cl s         
    67     -0.263304   5 Cl s                35     -0.258094   3 C  s         
    94      0.230763   8 Cl s                95      0.198222   8 Cl s         
    65      0.178423   5 Cl s                22     -0.169190   2 C  px        
    93     -0.136954   8 Cl s                25     -0.125430   2 C  px        
 
 Vector   20  Occ=1.000000D+00  E=-1.013128D+00
              MO Center=  2.2D-01, -1.1D-01, -4.7D-01, r^2= 2.5D+00
   Bfn.  Coefficient  Atom+Function         Bfn.  Coefficient  Atom+Function  
  ----- ------------  ---------------      ----- ------------  ---------------
    35      0.273255   3 C  s                54     -0.255895   4 O  pz        
    20     -0.216092   2 C  s                57     -0.197512   4 O  pz        
    52     -0.194430   4 O  px               55     -0.173083   4 O  px        
    24      0.166857   2 C  pz               36      0.140046   3 C  s         
   118      0.140296  11 H  s                51      0.133608   4 O  s         
 
 Vector   21  Occ=1.000000D+00  E=-9.062485D-01
              MO Center= -7.9D-01,  3.2D-01,  5.2D-01, r^2= 2.8D+00
   Bfn.  Coefficient  Atom+Function         Bfn.  Coefficient  Atom+Function  
  ----- ------------  ---------------      ----- ------------  ---------------
     6      0.261879   1 C  s                20     -0.239995   2 C  s         
     5      0.232169   1 C  s                28      0.191630   2 C  px        
     9      0.188724   1 C  pz               52      0.151579   4 O  px        
    25      0.148255   2 C  px                7     -0.141755   1 C  px        
    50      0.140452   4 O  s                12      0.133258   1 C  pz        
 
 Vector   22  Occ=1.000000D+00  E=-8.824298D-01
              MO Center=  1.1D-01,  1.2D-01,  4.0D-01, r^2= 2.7D+00
   Bfn.  Coefficient  Atom+Function         Bfn.  Coefficient  Atom+Function  
  ----- ------------  ---------------      ----- ------------  ---------------
    23      0.207428   2 C  py               26      0.185821   2 C  py        
    53      0.179439   4 O  py               38      0.172744   3 C  py        
     8      0.170630   1 C  py               41      0.164343   3 C  py        
    11      0.158646   1 C  py               56      0.154271   4 O  py        
    14      0.081425   1 C  py              114      0.077509  10 H  s         
 
 Vector   23  Occ=1.000000D+00  E=-8.746176D-01
              MO Center=  7.5D-01, -7.9D-02,  2.4D-01, r^2= 3.1D+00
   Bfn.  Coefficient  Atom+Function         Bfn.  Coefficient  Atom+Function  
  ----- ------------  ---------------      ----- ------------  ---------------
    36      0.252709   3 C  s                37      0.211150   3 C  px        
    22     -0.189162   2 C  px               54      0.185028   4 O  pz        
    25     -0.183421   2 C  px               28     -0.164250   2 C  px        
    24     -0.163339   2 C  pz               40      0.158015   3 C  px        
    57      0.151812   4 O  pz               35      0.146870   3 C  s         
 
 Vector   24  Occ=1.000000D+00  E=-8.236790D-01
              MO Center=  1.7D-01,  1.8D-01,  9.0D-01, r^2= 3.8D+00
   Bfn.  Coefficient  Atom+Function         Bfn.  Coefficient  Atom+Function  
  ----- ------------  ---------------      ----- ------------  ---------------
     8      0.223383   1 C  py               11      0.218833   1 C  py        
    38     -0.192267   3 C  py               41     -0.188680   3 C  py        
   106     -0.143627   8 Cl py               39      0.131362   3 C  pz        
    42      0.132005   3 C  pz               78      0.127027   5 Cl py        
   112      0.108873   9 H  s               111      0.105861   9 H  s         
 
 Vector   25  Occ=1.000000D+00  E=-8.079497D-01
              MO Center=  9.5D-01, -2.1D-01,  2.6D-01, r^2= 5.4D+00
   Bfn.  Coefficient  Atom+Function         Bfn.  Coefficient  Atom+Function  
  ----- ------------  ---------------      ----- ------------  ---------------
   105      0.264140   8 Cl px               42      0.231730   3 C  pz        
    39      0.211151   3 C  pz               95      0.175719   8 Cl s         
    77     -0.174823   5 Cl px               36     -0.144423   3 C  s         
    41      0.132137   3 C  py               12      0.129412   1 C  pz        
    94      0.125078   8 Cl s               102      0.122212   8 Cl px        
 
 Vector   26  Occ=1.000000D+00  E=-7.884434D-01
              MO Center= -4.3D-01,  1.7D-01, -8.1D-02, r^2= 4.4D+00
   Bfn.  Coefficient  Atom+Function         Bfn.  Coefficient  Atom+Function  
  ----- ------------  ---------------      ----- ------------  ---------------
    53      0.260565   4 O  py               56      0.228581   4 O  py        
    77      0.172776   5 Cl px               10     -0.145121   1 C  px        
    79      0.144120   5 Cl pz              106     -0.144774   8 Cl py        
     7     -0.139498   1 C  px               59      0.125663   4 O  py        
     6      0.118771   1 C  s                67     -0.109765   5 Cl s         
 
 Vector   27  Occ=1.000000D+00  E=-7.859818D-01
              MO Center= -4.3D-01,  7.2D-02, -8.8D-02, r^2= 5.2D+00
   Bfn.  Coefficient  Atom+Function         Bfn.  Coefficient  Atom+Function  
  ----- ------------  ---------------      ----- ------------  ---------------
    53      0.251956   4 O  py               77     -0.232430   5 Cl px        
    56      0.220895   4 O  py               79     -0.152300   5 Cl pz        
   105     -0.147503   8 Cl px               12      0.144312   1 C  pz        
   107      0.143178   8 Cl pz                6     -0.127145   1 C  s         
    67      0.126808   5 Cl s                 9      0.123329   1 C  pz        
 
 Vector   28  Occ=1.000000D+00  E=-7.565034D-01
              MO Center= -6.0D-02, -8.4D-02, -5.9D-01, r^2= 2.2D+00
   Bfn.  Coefficient  Atom+Function         Bfn.  Coefficient  Atom+Function  
  ----- ------------  ---------------      ----- ------------  ---------------
    52      0.303528   4 O  px               55      0.264344   4 O  px        
    54     -0.196164   4 O  pz               51      0.181904   4 O  s         
    12     -0.162766   1 C  pz               50      0.163130   4 O  s         
    57     -0.159813   4 O  pz                9     -0.151885   1 C  pz        
     6      0.139956   1 C  s                22     -0.138740   2 C  px        
 
 Vector   29  Occ=1.000000D+00  E=-7.057175D-01
              MO Center=  2.1D+00, -7.1D-01, -1.3D-01, r^2= 3.1D+00
   Bfn.  Coefficient  Atom+Function         Bfn.  Coefficient  Atom+Function  
  ----- ------------  ---------------      ----- ------------  ---------------
   106      0.481847   8 Cl py              107     -0.239713   8 Cl pz        
   109      0.222277   8 Cl py              103      0.215217   8 Cl py        
   105      0.142097   8 Cl px               97     -0.136993   8 Cl py        
    78      0.125005   5 Cl py              110     -0.111650   8 Cl pz        
   112      0.111599   9 H  s               115     -0.110593  10 H  s         
 
 Vector   30  Occ=1.000000D+00  E=-6.935413D-01
              MO Center= -2.0D+00,  5.6D-01, -7.4D-02, r^2= 3.9D+00
   Bfn.  Coefficient  Atom+Function         Bfn.  Coefficient  Atom+Function  
  ----- ------------  ---------------      ----- ------------  ---------------
    79      0.448251   5 Cl pz               77     -0.288858   5 Cl px        
    36     -0.230421   3 C  s                82      0.220268   5 Cl pz        
    28      0.208563   2 C  px               76      0.202521   5 Cl pz        
    21      0.182517   2 C  s                80     -0.149815   5 Cl px        
    20      0.140968   2 C  s               107      0.140481   8 Cl pz        
 
 Vector   31  Occ=1.000000D+00  E=-6.923141D-01
              MO Center= -2.2D+00,  6.6D-01,  3.6D-02, r^2= 3.0D+00
   Bfn.  Coefficient  Atom+Function         Bfn.  Coefficient  Atom+Function  
  ----- ------------  ---------------      ----- ------------  ---------------
    78      0.540305   5 Cl py               81      0.269842   5 Cl py        
    75      0.242176   5 Cl py               69     -0.154693   5 Cl py        
    72     -0.124207   5 Cl py               77      0.113919   5 Cl px        
     8     -0.111093   1 C  py               84     -0.109726   6 H  s         
   106     -0.109062   8 Cl py               87      0.104627   7 H  s         
 
 Vector   32  Occ=1.000000D+00  E=-6.813699D-01
              MO Center=  2.0D+00, -7.0D-01, -2.0D-01, r^2= 3.9D+00
   Bfn.  Coefficient  Atom+Function         Bfn.  Coefficient  Atom+Function  
  ----- ------------  ---------------      ----- ------------  ---------------
   107      0.399713   8 Cl pz              105      0.374426   8 Cl px        
   110      0.191757   8 Cl pz              104      0.181746   8 Cl pz        
   108      0.179460   8 Cl px              102      0.166617   8 Cl px        
    28     -0.138864   2 C  px               25      0.133102   2 C  px        
     6     -0.126339   1 C  s                79     -0.122050   5 Cl pz        
 
 Vector   33  Occ=0.000000D+00  E=-5.465327D-01
              MO Center=  4.9D-02,  4.8D-02,  5.5D-02, r^2= 2.0D+00
   Bfn.  Coefficient  Atom+Function         Bfn.  Coefficient  Atom+Function  
  ----- ------------  ---------------      ----- ------------  ---------------
    26      0.445625   2 C  py               23      0.404606   2 C  py        
    29      0.265217   2 C  py               53     -0.266243   4 O  py        
    59     -0.236148   4 O  py               56     -0.232147   4 O  py        
   115     -0.147285  10 H  s                87      0.141951   7 H  s         
    84     -0.135475   6 H  s               112      0.120359   9 H  s         
 
 Vector   34  Occ=0.000000D+00  E=-4.715792D-01
              MO Center= -1.9D-01,  1.2D-01,  2.6D-01, r^2= 6.0D+00
   Bfn.  Coefficient  Atom+Function         Bfn.  Coefficient  Atom+Function  
  ----- ------------  ---------------      ----- ------------  ---------------
    67      0.372289   5 Cl s                95      0.334158   8 Cl s         
     6     -0.328814   1 C  s                77      0.324887   5 Cl px        
     5     -0.305181   1 C  s                35     -0.297438   3 C  s         
    80      0.286348   5 Cl px               36     -0.264438   3 C  s         
    51      0.255517   4 O  s               105     -0.255414   8 Cl px        
 
 Vector   35  Occ=0.000000D+00  E=-4.146093D-01
              MO Center=  2.2D-01,  1.6D-02,  3.4D-01, r^2= 6.0D+00
   Bfn.  Coefficient  Atom+Function         Bfn.  Coefficient  Atom+Function  
  ----- ------------  ---------------      ----- ------------  ---------------
    36      0.514598   3 C  s                 6     -0.460981   1 C  s         
    95     -0.424116   8 Cl s                10      0.368539   1 C  px        
    67      0.362153   5 Cl s                40      0.327610   3 C  px        
    28     -0.265579   2 C  px                7      0.258073   1 C  px        
   108      0.255636   8 Cl px               80      0.253290   5 Cl px        
 
 Vector   36  Occ=0.000000D+00  E=-3.659740D-01
              MO Center= -5.6D-01,  8.4D-02, -4.4D-01, r^2= 5.4D+00
   Bfn.  Coefficient  Atom+Function         Bfn.  Coefficient  Atom+Function  
  ----- ------------  ---------------      ----- ------------  ---------------
    36      0.806646   3 C  s               119     -0.772422  11 H  s         
    51      0.743067   4 O  s                 6      0.662987   1 C  s         
   113     -0.459363   9 H  s                88     -0.453374   7 H  s         
   116     -0.452011  10 H  s                85     -0.441424   6 H  s         
    21     -0.400608   2 C  s               118     -0.367621  11 H  s         
 
 Vector   37  Occ=0.000000D+00  E=-3.296972D-01
              MO Center= -2.3D-01,  2.0D-01,  2.7D-01, r^2= 6.4D+00
   Bfn.  Coefficient  Atom+Function         Bfn.  Coefficient  Atom+Function  
  ----- ------------  ---------------      ----- ------------  ---------------
   116      0.825257  10 H  s               119     -0.828617  11 H  s         
    88      0.708822   7 H  s                 6     -0.676033   1 C  s         
    85      0.613010   6 H  s               113      0.603652   9 H  s         
    36     -0.551853   3 C  s                45     -0.500264   3 C  pz        
    15     -0.450093   1 C  pz               43     -0.404920   3 C  px        
 
 Vector   38  Occ=0.000000D+00  E=-2.865289D-01
              MO Center=  1.7D-01,  2.3D-01,  1.5D+00, r^2= 5.8D+00
   Bfn.  Coefficient  Atom+Function         Bfn.  Coefficient  Atom+Function  
  ----- ------------  ---------------      ----- ------------  ---------------
     6      1.500522   1 C  s               113      1.472630   9 H  s         
    85     -1.157023   6 H  s                36     -1.142693   3 C  s         
    45     -0.700280   3 C  pz               21     -0.563990   2 C  s         
    13      0.559929   1 C  px               29     -0.364081   2 C  py        
     5      0.353578   1 C  s                15      0.347769   1 C  pz        
 
 Vector   39  Occ=0.000000D+00  E=-2.807385D-01
              MO Center=  7.1D-01,  4.3D-01,  1.2D+00, r^2= 5.5D+00
   Bfn.  Coefficient  Atom+Function         Bfn.  Coefficient  Atom+Function  
  ----- ------------  ---------------      ----- ------------  ---------------
   116      1.634392  10 H  s                88     -1.081080   7 H  s         
    44     -1.072157   3 C  py               36     -1.064980   3 C  s         
   113     -0.847115   9 H  s                 6      0.782397   1 C  s         
    28      0.616370   2 C  px               29      0.509947   2 C  py        
    14     -0.506592   1 C  py               21      0.474738   2 C  s         
 
 Vector   40  Occ=0.000000D+00  E=-2.714709D-01
              MO Center= -4.7D-01,  4.0D-01,  1.2D+00, r^2= 4.3D+00
   Bfn.  Coefficient  Atom+Function         Bfn.  Coefficient  Atom+Function  
  ----- ------------  ---------------      ----- ------------  ---------------
    21      2.344930   2 C  s                85     -1.361169   6 H  s         
    14      1.209263   1 C  py               88      1.151724   7 H  s         
    36     -0.933935   3 C  s                 6     -0.763109   1 C  s         
    43      0.564001   3 C  px               44     -0.517580   3 C  py        
   116      0.467846  10 H  s                11      0.462299   1 C  py        
 
 Vector   41  Occ=0.000000D+00  E=-2.606276D-01
              MO Center= -1.2D-01,  2.6D-01,  1.0D+00, r^2= 5.0D+00
   Bfn.  Coefficient  Atom+Function         Bfn.  Coefficient  Atom+Function  
  ----- ------------  ---------------      ----- ------------  ---------------
    21      2.492676   2 C  s                88     -1.021487   7 H  s         
    36     -0.918039   3 C  s                43      0.835859   3 C  px        
   113      0.804193   9 H  s                85      0.757776   6 H  s         
    15      0.704252   1 C  pz               13     -0.697602   1 C  px        
     6     -0.663882   1 C  s               116     -0.584901  10 H  s         
 
 Vector   42  Occ=0.000000D+00  E=-2.097922D-01
              MO Center=  7.0D-01,  1.8D-01,  8.5D-01, r^2= 5.1D+00
   Bfn.  Coefficient  Atom+Function         Bfn.  Coefficient  Atom+Function  
  ----- ------------  ---------------      ----- ------------  ---------------
    28      2.145092   2 C  px               36     -1.947251   3 C  s         
    45      1.745437   3 C  pz               43      1.584596   3 C  px        
    15     -1.551431   1 C  pz               85      0.893047   6 H  s         
   113     -0.826512   9 H  s                88      0.795145   7 H  s         
     6      0.779450   1 C  s                21      0.765829   2 C  s         
 
 Vector   43  Occ=0.000000D+00  E=-1.930033D-01
              MO Center= -3.9D-01,  1.4D-01,  1.1D+00, r^2= 5.9D+00
   Bfn.  Coefficient  Atom+Function         Bfn.  Coefficient  Atom+Function  
  ----- ------------  ---------------      ----- ------------  ---------------
    15      1.702923   1 C  pz                6     -1.014020   1 C  s         
    28     -0.993045   2 C  px               14      0.736612   1 C  py        
    85     -0.719876   6 H  s                13     -0.675626   1 C  px        
   119      0.478244  11 H  s                30      0.471494   2 C  pz        
    45      0.471447   3 C  pz               36      0.406415   3 C  s         
 
 Vector   44  Occ=0.000000D+00  E=-1.722517D-01
              MO Center= -1.5D-01,  1.8D-01,  5.9D-01, r^2= 6.8D+00
   Bfn.  Coefficient  Atom+Function         Bfn.  Coefficient  Atom+Function  
  ----- ------------  ---------------      ----- ------------  ---------------
    30      2.117031   2 C  pz               13     -1.607268   1 C  px        
    45     -1.596193   3 C  pz                6     -1.476425   1 C  s         
    51      1.165647   4 O  s               113      1.011170   9 H  s         
    36     -0.669979   3 C  s                67     -0.638900   5 Cl s         
    15     -0.609566   1 C  pz               95     -0.607967   8 Cl s         
 
 Vector   45  Occ=0.000000D+00  E=-1.661267D-01
              MO Center= -1.1D-01,  2.7D-01,  4.1D-02, r^2= 4.6D+00
   Bfn.  Coefficient  Atom+Function         Bfn.  Coefficient  Atom+Function  
  ----- ------------  ---------------      ----- ------------  ---------------
    29      0.977802   2 C  py               14      0.761792   1 C  py        
    88      0.684530   7 H  s                26     -0.611019   2 C  py        
   113      0.559410   9 H  s                85     -0.521173   6 H  s         
   116     -0.488552  10 H  s                15     -0.408309   1 C  pz        
    45     -0.348354   3 C  pz               44      0.331117   3 C  py        
 
 Vector   46  Occ=0.000000D+00  E=-1.339136D-01
              MO Center=  6.4D-01,  3.3D-01,  5.6D-01, r^2= 6.5D+00
   Bfn.  Coefficient  Atom+Function         Bfn.  Coefficient  Atom+Function  
  ----- ------------  ---------------      ----- ------------  ---------------
[...]
    21      2.148895   2 C  s                19      1.862560   2 C  s         
    20     -1.867925   2 C  s                18     -1.713458   2 C  s         
     2     -1.377958   1 C  s                34     -1.022790   3 C  s         
 
 Vector  104  Occ=0.000000D+00  E= 1.125437D+01
              MO Center=  7.4D-01,  5.5D-02,  7.7D-01, r^2= 1.5D+00
   Bfn.  Coefficient  Atom+Function         Bfn.  Coefficient  Atom+Function  
  ----- ------------  ---------------      ----- ------------  ---------------
    36     -3.043673   3 C  s                34     -2.992747   3 C  s         
    35      2.846835   3 C  s                33      2.810773   3 C  s         
     6      1.711002   1 C  s                 4      1.643215   1 C  s         
     3     -1.550423   1 C  s                 5     -1.556854   1 C  s         
    32     -1.463304   3 C  s                28      1.299911   2 C  px        
 
 Vector  105  Occ=0.000000D+00  E= 2.143595D+01
              MO Center= -8.8D-02, -2.0D-01, -1.1D+00, r^2= 2.0D-01
   Bfn.  Coefficient  Atom+Function         Bfn.  Coefficient  Atom+Function  
  ----- ------------  ---------------      ----- ------------  ---------------
    48      3.325926   4 O  s                49     -3.233042   4 O  s         
    50      2.604984   4 O  s                47     -1.742410   4 O  s         
    51     -1.673132   4 O  s                30     -0.604402   2 C  pz        
    21      0.442971   2 C  s                60     -0.258579   4 O  pz        
    36      0.246467   3 C  s                28     -0.241172   2 C  px        
 
 Vector  106  Occ=0.000000D+00  E= 4.029353D+01
              MO Center=  2.6D+00, -9.2D-01, -2.7D-01, r^2= 1.4D-01
   Bfn.  Coefficient  Atom+Function         Bfn.  Coefficient  Atom+Function  
  ----- ------------  ---------------      ----- ------------  ---------------
    97      2.351282   8 Cl py              100     -2.100492   8 Cl py        
    98     -0.972587   8 Cl pz              101      0.868838   8 Cl pz        
    96      0.751536   8 Cl px              103     -0.710204   8 Cl py        
    99     -0.671410   8 Cl px              106      0.317954   8 Cl py        
   104      0.293804   8 Cl pz              102     -0.226827   8 Cl px        
 
 Vector  107  Occ=0.000000D+00  E= 4.030465D+01
              MO Center= -2.6D+00,  7.5D-01, -1.1D-01, r^2= 1.9D-01
   Bfn.  Coefficient  Atom+Function         Bfn.  Coefficient  Atom+Function  
  ----- ------------  ---------------      ----- ------------  ---------------
    69      2.489011   5 Cl py               72     -2.223615   5 Cl py        
    68      0.758046   5 Cl px               75     -0.751515   5 Cl py        
    71     -0.677235   5 Cl px               70     -0.507892   5 Cl pz        
    73      0.453733   5 Cl pz               78      0.336031   5 Cl py        
    74     -0.228788   5 Cl px               76      0.153375   5 Cl pz        
 
 Vector  108  Occ=0.000000D+00  E= 4.030522D+01
              MO Center=  2.6D+00, -9.2D-01, -2.7D-01, r^2= 1.7D-01
   Bfn.  Coefficient  Atom+Function         Bfn.  Coefficient  Atom+Function  
  ----- ------------  ---------------      ----- ------------  ---------------
    98      2.070646   8 Cl pz              101     -1.849457   8 Cl pz        
    96      1.624204   8 Cl px               99     -1.450778   8 Cl px        
   104     -0.627727   8 Cl pz              102     -0.492015   8 Cl px        
    97      0.332273   8 Cl py              100     -0.296789   8 Cl py        
   107      0.285698   8 Cl pz              105      0.223019   8 Cl px        
 
 Vector  109  Occ=0.000000D+00  E= 4.031362D+01
              MO Center=  2.4D+00, -8.5D-01, -2.6D-01, r^2= 1.3D+00
   Bfn.  Coefficient  Atom+Function         Bfn.  Coefficient  Atom+Function  
  ----- ------------  ---------------      ----- ------------  ---------------
    96      1.908639   8 Cl px               99     -1.703594   8 Cl px        
    98     -1.331228   8 Cl pz              101      1.188170   8 Cl pz        
    97     -1.166132   8 Cl py              100      1.040825   8 Cl py        
   102     -0.584575   8 Cl px              104      0.407931   8 Cl pz        
    70      0.403122   5 Cl pz               73     -0.360077   5 Cl pz        
 
 Vector  110  Occ=0.000000D+00  E= 4.031995D+01
              MO Center= -2.5D+00,  7.1D-01, -1.1D-01, r^2= 9.6D-01
   Bfn.  Coefficient  Atom+Function         Bfn.  Coefficient  Atom+Function  
  ----- ------------  ---------------      ----- ------------  ---------------
    68      2.314514   5 Cl px               71     -2.066453   5 Cl px        
    69     -0.869375   5 Cl py               70     -0.859313   5 Cl pz        
    72      0.776283   5 Cl py               73      0.767689   5 Cl pz        
    74     -0.705864   5 Cl px               96      0.351020   8 Cl px        
    77      0.326886   5 Cl px               99     -0.313231   8 Cl px        
 
 Vector  111  Occ=0.000000D+00  E= 4.032734D+01
              MO Center= -2.6D+00,  7.4D-01, -1.1D-01, r^2= 4.6D-01
   Bfn.  Coefficient  Atom+Function         Bfn.  Coefficient  Atom+Function  
  ----- ------------  ---------------      ----- ------------  ---------------
    70      2.428241   5 Cl pz               73     -2.167543   5 Cl pz        
    68      1.024125   5 Cl px               71     -0.913697   5 Cl px        
    76     -0.743128   5 Cl pz               79      0.349814   5 Cl pz        
    74     -0.315906   5 Cl px               96     -0.275827   8 Cl px        
    99      0.246129   8 Cl px               69      0.173446   5 Cl py        
 
 Vector  112  Occ=0.000000D+00  E= 6.200031D+01
              MO Center=  1.2D-01,  9.9D-02,  3.8D-01, r^2= 7.7D-01
   Bfn.  Coefficient  Atom+Function         Bfn.  Coefficient  Atom+Function  
  ----- ------------  ---------------      ----- ------------  ---------------
    17      2.385146   2 C  s                18     -1.818888   2 C  s         
    16     -1.410386   2 C  s                32      1.303425   3 C  s         
    19      1.212066   2 C  s                 2      1.131638   1 C  s         
    33     -0.989773   3 C  s                20     -0.973729   2 C  s         
     3     -0.859155   1 C  s                31     -0.772335   3 C  s         
 
 Vector  113  Occ=0.000000D+00  E= 6.216935D+01
              MO Center= -7.4D-01,  3.6D-01,  7.3D-01, r^2= 6.9D-01
   Bfn.  Coefficient  Atom+Function         Bfn.  Coefficient  Atom+Function  
  ----- ------------  ---------------      ----- ------------  ---------------
     2      2.474389   1 C  s                 3     -1.892566   1 C  s         
    17     -1.503908   2 C  s                 1     -1.460560   1 C  s         
     4      1.298766   1 C  s                18      1.154000   2 C  s         
     5     -1.147198   1 C  s                 6      1.124013   1 C  s         
    16      0.886061   2 C  s                21     -0.867152   2 C  s         
 
 Vector  114  Occ=0.000000D+00  E= 6.219333D+01
              MO Center=  8.7D-01,  2.0D-02,  7.3D-01, r^2= 1.0D+00
   Bfn.  Coefficient  Atom+Function         Bfn.  Coefficient  Atom+Function  
  ----- ------------  ---------------      ----- ------------  ---------------
    32      2.583092   3 C  s                33     -1.980172   3 C  s         
    31     -1.523480   3 C  s                34      1.368127   3 C  s         
    36      1.297083   3 C  s                35     -1.230793   3 C  s         
     2     -1.144785   1 C  s                 3      0.879197   1 C  s         
    17     -0.872829   2 C  s                 1      0.674945   1 C  s         
 
 Vector  115  Occ=0.000000D+00  E= 1.173730D+02
              MO Center= -8.9D-02, -2.0D-01, -1.1D+00, r^2= 4.5D-02
   Bfn.  Coefficient  Atom+Function         Bfn.  Coefficient  Atom+Function  
  ----- ------------  ---------------      ----- ------------  ---------------
    47      2.970569   4 O  s                48     -2.275936   4 O  s         
    46     -1.756230   4 O  s                49      1.441055   4 O  s         
    50     -1.095673   4 O  s                51      0.705938   4 O  s         
    30      0.257783   2 C  pz               21     -0.191035   2 C  s         
    60      0.109524   4 O  pz               36     -0.108160   3 C  s         
 
 Vector  116  Occ=0.000000D+00  E= 1.225910D+02
              MO Center=  6.1D-01, -2.8D-01, -2.1D-01, r^2= 7.2D+00
   Bfn.  Coefficient  Atom+Function         Bfn.  Coefficient  Atom+Function  
  ----- ------------  ---------------      ----- ------------  ---------------
    91      1.781064   8 Cl s                63      1.397586   5 Cl s         
    92     -1.352423   8 Cl s                90     -1.265445   8 Cl s         
    64     -1.060691   5 Cl s                62     -0.993050   5 Cl s         
    93      0.912828   8 Cl s                65      0.715118   5 Cl s         
    94     -0.418067   8 Cl s                66     -0.325191   5 Cl s         
 
 Vector  117  Occ=0.000000D+00  E= 1.226078D+02
              MO Center= -6.4D-01,  1.2D-01, -1.7D-01, r^2= 7.2D+00
   Bfn.  Coefficient  Atom+Function         Bfn.  Coefficient  Atom+Function  
  ----- ------------  ---------------      ----- ------------  ---------------
    63      1.781237   5 Cl s                91     -1.398004   8 Cl s         
    64     -1.352939   5 Cl s                62     -1.265522   5 Cl s         
    92      1.062387   8 Cl s                90      0.993180   8 Cl s         
    65      0.913676   5 Cl s                93     -0.718219   8 Cl s         
    66     -0.419437   5 Cl s                94      0.331846   8 Cl s         
 
 Vector  118  Occ=0.000000D+00  E= 8.991384D+02
              MO Center=  5.3D-01, -2.6D-01, -2.1D-01, r^2= 7.3D+00
   Bfn.  Coefficient  Atom+Function         Bfn.  Coefficient  Atom+Function  
  ----- ------------  ---------------      ----- ------------  ---------------
    90      1.820148   8 Cl s                62      1.474660   5 Cl s         
    89     -1.353701   8 Cl s                61     -1.096777   5 Cl s         
    91     -1.023139   8 Cl s                63     -0.828874   5 Cl s         
    92      0.544732   8 Cl s                64      0.441092   5 Cl s         
    93     -0.351654   8 Cl s                65     -0.284445   5 Cl s         
 
 Vector  119  Occ=0.000000D+00  E= 8.991580D+02
              MO Center= -5.6D-01,  9.4D-02, -1.7D-01, r^2= 7.3D+00
   Bfn.  Coefficient  Atom+Function         Bfn.  Coefficient  Atom+Function  
  ----- ------------  ---------------      ----- ------------  ---------------
    62      1.820189   5 Cl s                90     -1.474784   8 Cl s         
    61     -1.353708   5 Cl s                89      1.096797   8 Cl s         
    63     -1.023216   5 Cl s                91      0.829106   8 Cl s         
    64      0.544957   5 Cl s                92     -0.441783   8 Cl s         
    65     -0.352033   5 Cl s                93      0.285672   8 Cl s         
 

   alpha - beta orbital overlaps 
   ----------------------------- 


   alpha      1      2      3      4      5      6      7      8      9     10
    beta      1      2      3      4      5      6      7      8      9     10
 overlap   1.000  1.000  1.000  1.000  1.000  1.000  1.000  1.000  0.996  0.996


   alpha     11     12     13     14     15     16     17     18     19     20
    beta     11     12     13     14     15     16     17     18     19     20
 overlap   1.000  1.000  1.000  1.000  1.000  0.978  0.982  0.996  0.998  0.999


   alpha     21     22     23     24     25     26     27     28     29     30
    beta     21     22     23     24     25     26     27     28     32     29
 overlap   0.999  0.999  0.999  0.997  0.998  0.909  0.910  0.999  0.608  0.987


   alpha     31     32     33     34     35     36     37     38     39     40
    beta     32     30     33     34     35     36     37     38     39     40
 overlap   0.781  0.731  1.000  1.000  1.000  1.000  1.000  1.000  0.999  0.995


   alpha     41     42     43     44     45     46     47     48     49     50
    beta     41     42     43     44     45     46     47     48     49     50
 overlap   0.995  1.000  1.000  1.000  1.000  0.996  0.998  0.996  1.000  1.000


   alpha     51     52     53     54     55     56     57     58     59     60
    beta     51     52     53     54     55     56     57     59     58     60
 overlap   1.000  0.999  0.986  0.989  0.966  0.957  0.995  0.940  0.956  0.998


   alpha     61     62     63     64     65     66     67     68     69     70
    beta     61     62     63     64     65     66     67     68     69     70
 overlap   0.990  1.000  0.995  0.996  0.999  1.000  1.000  1.000  1.000  0.995


   alpha     71     72     73     74     75     76     77     78     79     80
    beta     71     72     73     74     75     76     77     78     79     80
 overlap   0.995  1.000  1.000  1.000  1.000  1.000  1.000  1.000  1.000  1.000


   alpha     81     82     83     84     85     86     87     88     89     90
    beta     81     82     83     84     85     86     87     88     89     90
 overlap   1.000  1.000  1.000  1.000  0.943  0.946  0.999  0.986  0.977  0.994


   alpha     91     92     93     94     95     96     97     98     99    100
    beta     91     92     93     94     95     96     97     98     99    100
 overlap   0.992  0.990  1.000  1.000  1.000  1.000  1.000  1.000  1.000  0.997


   alpha    101    102    103    104    105    106    107    108    109    110
    beta    101    102    103    104    105    106    107    108    109    110
 overlap   0.997  1.000  1.000  1.000  1.000  1.000  0.999  0.999  1.000  1.000


   alpha    111    112    113    114    115    116    117    118    119
    beta    111    112    113    114    115    116    117    118    119
 overlap   1.000  1.000  1.000  1.000  1.000  0.999  0.999  1.000  1.000

     --------------------------
     Expectation value of S2:  
     --------------------------
      <S2> =      0.7511 (Exact =     0.7500)
 

 center of mass
 --------------
 x =   0.00463435 y =  -0.02376092 z =  -0.07033834

 moments of inertia (a.u.)
 ------------------
         390.808650250735         580.761885086887          41.999259676401
         580.761885086887        2081.106825469759         -57.160496348040
          41.999259676401         -57.160496348040        2098.385624088060
 
     Multipole analysis of the density
     ---------------------------------
 
     L   x y z        total         alpha         beta         nuclear
     -   - - -        -----         -----         ----         -------
     0   0 0 0      2.000000    -32.000000    -31.000000     65.000000
 
     1   1 0 0      0.052897     -0.458248      0.511146      0.000000
     1   0 1 0      0.346606      0.367039     -0.020432     -0.000000
     1   0 0 1      1.242508      0.686933      0.555574      0.000000
 
     2   2 0 0     -7.581084   -485.071228   -460.836939    938.327082
     2   1 1 0     -5.859742    142.061955    134.883245   -282.804942
     2   1 0 1      1.776418     10.054935      9.022481    -17.300998
     2   0 2 0    -27.971080    -68.987363    -64.547415    105.563698
     2   0 1 1      1.021991    -15.178690    -15.062005     31.262686
     2   0 0 2    -24.184338    -69.608130    -67.958441    113.382234
 

 Task  times  cpu:      111.4s     wall:      114.2s
 
 
                                NWChem Input Module
                                -------------------
 
 
 Summary of allocated global arrays
-----------------------------------
  No active global arrays



                         GA Statistics for process    0
                         ------------------------------

       create   destroy   get      put      acc     scatter   gather  read&inc
calls: 4476     4476     4.50e+05 2.89e+04 3.48e+05    0        0     5535     
number of processes/call 1.34e+01 8.97e+01 9.72e+00 0.00e+00 0.00e+00
bytes total:             1.49e+09 2.02e+08 8.01e+08 0.00e+00 0.00e+00 4.43e+04
bytes remote:            1.19e+09 1.07e+08 6.78e+08 0.00e+00 0.00e+00 0.00e+00
Max memory consumed for GA by this process: 1038088 bytes
 
 
 
                                     CITATION
                                     --------
                Please cite the following reference when publishing
                           results obtained with NWChem:
 
          E. Apr, E. J. Bylaska, W. A. de Jong, N. Govind, K. Kowalski,
       T. P. Straatsma, M. Valiev, H. J. J. van Dam, Y. Alexeev, J. Anchell,
       V. Anisimov, F. W. Aquino, R. Atta-Fynn, J. Autschbach, N. P. Bauman,
     J. C. Becca, D. E. Bernholdt, K. Bhaskaran-Nair, S. Bogatko, P. Borowski,
        J. Boschen, J. Brabec, A. Bruner, E. Caut, Y. Chen, G. N. Chuev,
      C. J. Cramer, J. Daily, M. J. O. Deegan, T. H. Dunning Jr., M. Dupuis,
   K. G. Dyall, G. I. Fann, S. A. Fischer, A. Fonari, H. Frchtl, L. Gagliardi,
      J. Garza, N. Gawande, S. Ghosh, K. Glaesemann, A. W. Gtz, J. Hammond,
       V. Helms, E. D. Hermes, K. Hirao, S. Hirata, M. Jacquelin, L. Jensen,
   B. G. Johnson, H. Jnsson, R. A. Kendall, M. Klemm, R. Kobayashi, V. Konkov,
      S. Krishnamoorthy, M. Krishnan, Z. Lin, R. D. Lins, R. J. Littlefield,
      A. J. Logsdail, K. Lopata, W. Ma, A. V. Marenich, J. Martin del Campo,
   D. Mejia-Rodriguez, J. E. Moore, J. M. Mullin, T. Nakajima, D. R. Nascimento,
    J. A. Nichols, P. J. Nichols, J. Nieplocha, A. Otero-de-la-Roza, B. Palmer,
    A. Panyala, T. Pirojsirikul, B. Peng, R. Peverati, J. Pittner, L. Pollack,
   R. M. Richard, P. Sadayappan, G. C. Schatz, W. A. Shelton, D. W. Silverstein,
   D. M. A. Smith, T. A. Soares, D. Song, M. Swart, H. L. Taylor, G. S. Thomas,
            V. Tipparaju, D. G. Truhlar, K. Tsemekhman, T. Van Voorhis,
     . Vzquez-Mayagoitia, P. Verma, O. Villa, A. Vishnu, K. D. Vogiatzis,
        D. Wang, J. H. Weare, M. J. Williamson, T. L. Windus, K. Woliski,
        A. T. Wong, Q. Wu, C. Yang, Q. Yu, M. Zacharias, Z. Zhang, Y. Zhao,
                                and R. J. Harrison
                        "NWChem: Past, present, and future
                         J. Chem. Phys. 152, 184102 (2020)
                               doi:10.1063/5.0004997
 
                                      AUTHORS
                                      -------
     E. Apra, E. J. Bylaska, N. Govind, K. Kowalski, M. Valiev, W. A. de Jong,
      T. P. Straatsma, H. J. J. van Dam, D. Wang, T. L. Windus, N. P. Bauman,
       A. Panyala, J. Hammond, J. Autschbach, K. Bhaskaran-Nair, J. Brabec,
    K. Lopata, S. A. Fischer, S. Krishnamoorthy, M. Jacquelin, W. Ma, M. Klemm,
       O. Villa, Y. Chen, V. Anisimov, F. Aquino, S. Hirata, M. T. Hackler,
           Eric Hermes, L. Jensen, J. E. Moore, J. C. Becca, V. Konjkov,
            D. Mejia-Rodriguez, T. Risthaus, M. Malagoli, A. Marenich,
   A. Otero-de-la-Roza, J. Mullin, P. Nichols, R. Peverati, J. Pittner, Y. Zhao,
        P.-D. Fan, A. Fonari, M. J. Williamson, R. J. Harrison, J. R. Rehr,
      M. Dupuis, D. Silverstein, D. M. A. Smith, J. Nieplocha, V. Tipparaju,
      M. Krishnan, B. E. Van Kuiken, A. Vazquez-Mayagoitia, M. Swart, Q. Wu,
   T. Van Voorhis, A. A. Auer, M. Nooijen, L. D. Crosby, E. Brown, G. Cisneros,
     G. I. Fann, H. Fruchtl, J. Garza, K. Hirao, R. A. Kendall, J. A. Nichols,
       K. Tsemekhman, K. Wolinski, J. Anchell, D. E. Bernholdt, P. Borowski,
       T. Clark, D. Clerc, H. Dachsel, M. J. O. Deegan, K. Dyall, D. Elwood,
      E. Glendening, M. Gutowski, A. C. Hess, J. Jaffe, B. G. Johnson, J. Ju,
        R. Kobayashi, R. Kutteh, Z. Lin, R. Littlefield, X. Long, B. Meng,
      T. Nakajima, S. Niu, L. Pollack, M. Rosing, K. Glaesemann, G. Sandrone,
      M. Stave, H. Taylor, G. Thomas, J. H. van Lenthe, A. T. Wong, Z. Zhang.

 Total times  cpu:      111.4s     wall:      114.3s
