 
             Northwest Computational Chemistry Package (NWChem) 7.0.0
             --------------------------------------------------------
 
 
                    Environmental Molecular Sciences Laboratory
                       Pacific Northwest National Laboratory
                                Richland, WA 99352
 
                              Copyright (c) 1994-2020
                       Pacific Northwest National Laboratory
                            Battelle Memorial Institute
 
             NWChem is an open-source computational chemistry package
                        distributed under the terms of the
                      Educational Community License (ECL) 2.0
             A copy of the license is included with this distribution
                              in the LICENSE.TXT file
 
                                  ACKNOWLEDGMENT
                                  --------------

            This software and its documentation were developed at the
            EMSL at Pacific Northwest National Laboratory, a multiprogram
            national laboratory, operated for the U.S. Department of Energy
            by Battelle under Contract Number DE-AC05-76RL01830. Support
            for this work was provided by the Department of Energy Office
            of Biological and Environmental Research, Office of Basic
            Energy Sciences, and the Office of Advanced Scientific Computing.


                                NWChem Input Module
                                -------------------
 
 
 Summary of "ao basis" -> "" (spherical)
 ------------------------------------------------------------------------------
       Tag                 Description            Shells   Functions and Types
 ---------------- ------------------------------  ------  ---------------------
 *                        ahlrichs_vtz                on all atoms 



 Scaling coordinates for geometry "geometry" by  1.889725989
 (inverse scale =  0.529177249)

 
 
                             Geometry "geometry" -> ""
                             -------------------------
 
 Output coordinates in angstroms (scale by  1.889725989 to convert to a.u.)
 
  No.       Tag          Charge          X              Y              Z
 ---- ---------------- ---------- -------------- -------------- --------------
    1 C                    6.0000    -2.44154300     0.89099523    -0.22343108
    2 C                    6.0000    -1.28251486     0.21105691    -0.96689396
    3 H                    1.0000    -2.60533723     0.43851757     0.76339724
    4 H                    1.0000    -3.36527459     0.77098648    -0.80321725
    5 H                    1.0000    -2.26658883     1.96817014    -0.09131876
    6 C                    6.0000     0.04875152     0.38936861    -0.27573296
    7 H                    1.0000    -1.16799818     0.66462487    -1.97056978
    8 H                    1.0000    -1.48808004    -0.85931869    -1.12242782
    9 C                    6.0000     1.17664902    -0.45232596    -0.71435463
   10 O                    8.0000     2.42794735    -0.08671523    -0.80302970
   11 H                    1.0000     1.01173518    -1.48224511    -1.03717091
   12 Cl                  17.0000     0.14600546    -0.54814003     1.43260361
   13 H                    1.0000     0.30565485     1.42966359    -0.04126591
   14 H                    1.0000     2.66216094     0.84713501    -0.54497489
 
      Atomic Mass 
      ----------- 
 
      C                 12.000000
      H                  1.007825
      O                 15.994910
      Cl                34.968850
 

 Effective nuclear repulsion energy (a.u.)     295.7628225481

            Nuclear Dipole moment (a.u.) 
            ----------------------------
        X                 Y               Z
 ---------------- ---------------- ----------------
     0.0000000000     0.0000000000     0.0000000000
 
 
            XYZ format geometry
            -------------------
    14
 geometry
 C                    -2.44154300     0.89099523    -0.22343108
 C                    -1.28251486     0.21105691    -0.96689396
 H                    -2.60533723     0.43851757     0.76339724
 H                    -3.36527459     0.77098648    -0.80321725
 H                    -2.26658883     1.96817014    -0.09131876
 C                     0.04875152     0.38936861    -0.27573296
 H                    -1.16799818     0.66462487    -1.97056978
 H                    -1.48808004    -0.85931869    -1.12242782
 C                     1.17664902    -0.45232596    -0.71435463
 O                     2.42794735    -0.08671523    -0.80302970
 H                     1.01173518    -1.48224511    -1.03717091
 Cl                    0.14600546    -0.54814003     1.43260361
 H                     0.30565485     1.42966359    -0.04126591
 H                     2.66216094     0.84713501    -0.54497489
 
 ==============================================================================
                                internuclear distances
 ------------------------------------------------------------------------------
       center one      |      center two      | atomic units |  angstroms
 ------------------------------------------------------------------------------
    2 C                |   1 C                |     2.90207  |     1.53571
    3 H                |   1 C                |     2.07474  |     1.09790
    4 H                |   1 C                |     2.07340  |     1.09719
    5 H                |   1 C                |     2.07730  |     1.09926
    6 C                |   2 C                |     2.85453  |     1.51055
    7 H                |   2 C                |     2.09257  |     1.10734
    8 H                |   2 C                |     2.08055  |     1.10098
    9 C                |   6 C                |     2.78566  |     1.47411
   10 O                |   9 C                |     2.46917  |     1.30663
   11 H                |   9 C                |     2.06330  |     1.09185
   12 Cl               |   6 C                |     3.68705  |     1.95110
   13 H                |   6 C                |     2.07284  |     1.09690
   14 H                |  10 O                |     1.88360  |     0.99676
 ------------------------------------------------------------------------------
                         number of included internuclear distances:         13
 ==============================================================================



 ==============================================================================
                                 internuclear angles
 ------------------------------------------------------------------------------
        center 1       |       center 2       |       center 3       |  degrees
 ------------------------------------------------------------------------------
    2 C                |   1 C                |   3 H                |   111.42
    2 C                |   1 C                |   4 H                |   109.34
    2 C                |   1 C                |   5 H                |   111.83
    3 H                |   1 C                |   4 H                |   107.72
    3 H                |   1 C                |   5 H                |   108.64
    4 H                |   1 C                |   5 H                |   107.74
    1 C                |   2 C                |   6 C                |   113.04
    1 C                |   2 C                |   7 H                |   109.60
    1 C                |   2 C                |   8 H                |   110.97
    6 C                |   2 C                |   7 H                |   105.98
    6 C                |   2 C                |   8 H                |   110.12
    7 H                |   2 C                |   8 H                |   106.83
    2 C                |   6 C                |   9 C                |   118.08
    2 C                |   6 C                |  12 Cl               |   112.82
    2 C                |   6 C                |  13 H                |   114.59
    9 C                |   6 C                |  12 Cl               |    87.02
    9 C                |   6 C                |  13 H                |   115.21
   12 Cl               |   6 C                |  13 H                |   104.88
    6 C                |   9 C                |  10 O                |   126.38
    6 C                |   9 C                |  11 H                |   120.73
   10 O                |   9 C                |  11 H                |   112.86
    9 C                |  10 O                |  14 H                |   118.01
 ------------------------------------------------------------------------------
                            number of included internuclear angles:         22
 ==============================================================================



                              Aldehyde and Ketone set
                              -----------------------
 
                                 NWChem DFT Module
                                 -----------------
 
 
                              Aldehyde and Ketone set
 
 
                      Basis "ao basis" -> "ao basis" (spherical)
                      -----
  C (Carbon)
  ----------
            Exponent  Coefficients 
       -------------- ---------------------------------------------------------
  1 S  8.50603840E+03  0.000534
  1 S  1.27573290E+03  0.004125
  1 S  2.90311870E+02  0.021171
  1 S  8.20562000E+01  0.082418
  1 S  2.64796410E+01  0.240129
 
  2 S  9.24145850E+00  1.000000
 
  3 S  3.36435300E+00  1.000000
 
  4 S  8.71741640E-01  1.000000
 
  5 S  3.63523520E-01  1.000000
 
  6 S  1.28731350E-01  1.000000
 
  7 P  3.47094960E+01  0.005330
  7 P  7.95908830E+00  0.035866
  7 P  2.37869720E+00  0.142003
  7 P  8.15400650E-01  0.342031
 
  8 P  2.89537850E-01  1.000000
 
  9 P  1.00847540E-01  1.000000
 
  H (Hydrogen)
  ------------
            Exponent  Coefficients 
       -------------- ---------------------------------------------------------
  1 S  3.40613410E+01  0.006025
  1 S  5.12357460E+00  0.045021
  1 S  1.16466260E+00  0.201897
 
  2 S  3.27230410E-01  1.000000
 
  3 S  1.03072410E-01  1.000000
 
  O (Oxygen)
  ----------
            Exponent  Coefficients 
       -------------- ---------------------------------------------------------
  1 S  1.59026475E+04  0.000515
  1 S  2.38495378E+03  0.003982
  1 S  5.42719572E+02  0.020477
  1 S  1.53404079E+02  0.080262
  1 S  4.95457161E+01  0.237668
 
  2 S  1.73396499E+01  1.000000
 
  3 S  6.33033553E+00  1.000000
 
  4 S  1.69958822E+00  1.000000
 
  5 S  6.89544913E-01  1.000000
 
  6 S  2.39360282E-01  1.000000
 
  7 P  6.32705240E+01  0.006071
  7 P  1.46233123E+01  0.041948
  7 P  4.44895180E+00  0.161569
  7 P  1.52815132E+00  0.356828
 
  8 P  5.29973159E-01  1.000000
 
  9 P  1.75094460E-01  1.000000
 
  Cl (Chlorine)
  -------------
            Exponent  Coefficients 
       -------------- ---------------------------------------------------------
  1 S  1.17805790E+05  0.000242
  1 S  1.76602650E+04  0.001874
  1 S  4.01859730E+03  0.009736
  1 S  1.13622310E+03  0.039495
  1 S  3.68120620E+02  0.127972
 
  2 S  1.30861540E+02  1.000000
 
  3 S  5.04790110E+01  0.428741
  3 S  2.09168050E+01  0.196685
 
  4 S  6.35313880E+00  1.000000
 
  5 S  2.49480140E+00  1.000000
 
  6 S  5.43359480E-01  1.000000
 
  7 S  1.94343660E-01  1.000000
 
  8 P  6.81068790E+02  0.002366
  8 P  1.61113590E+02  0.018941
  8 P  5.13866370E+01  0.087845
  8 P  1.89585120E+01  0.257074
  8 P  3.00351580E+00  0.371524
 
  9 P  7.45652930E+00  1.000000
 
 10 P  1.06093610E+00  1.000000
 
 11 P  3.94520230E-01  1.000000
 
 12 P  1.33232790E-01  1.000000
 


 Summary of "ao basis" -> "ao basis" (spherical)
 ------------------------------------------------------------------------------
       Tag                 Description            Shells   Functions and Types
 ---------------- ------------------------------  ------  ---------------------
 C                        ahlrichs vtz               9       15   6s3p
 H                        ahlrichs vtz               3        3   3s
 O                        ahlrichs vtz               9       15   6s3p
 Cl                       ahlrichs vtz              12       22   7s5p




 Summary of "ao basis" -> "ao basis" (spherical)
 ------------------------------------------------------------------------------
       Tag                 Description            Shells   Functions and Types
 ---------------- ------------------------------  ------  ---------------------
 C                        ahlrichs vtz               9       15   6s3p
 H                        ahlrichs vtz               3        3   3s
 O                        ahlrichs vtz               9       15   6s3p
 Cl                       ahlrichs vtz              12       22   7s5p


  Caching 1-el integrals 
 
            General Information
            -------------------
          SCF calculation type: DFT
          Wavefunction type:  spin polarized.
          No. of atoms     :    14
          No. of electrons :    55
           Alpha electrons :    28
            Beta electrons :    27
          Charge           :     2
          Spin multiplicity:     2
          Use of symmetry is: off; symmetry adaption is: off
          Maximum number of iterations: ***
          This is a Direct SCF calculation.
          AO basis - number of functions:   121
                     number of shells:    81
          Convergence on energy requested:  1.00D-08
          Convergence on density requested:  1.00D-07
          Convergence on gradient requested:  1.00D-06
 
              XC Information
              --------------
                        PBE96 Method XC Functional
          PerdewBurkeErnzerhof Exchange Functional  1.000          
            Perdew 1991 LDA Correlation Functional  1.000 local    
           PerdewBurkeErnz. Correlation Functional  1.000 non-local
 
             Grid Information
             ----------------
          Grid used for XC integration:  fine      
          Radial quadrature: Mura-Knowles        
          Angular quadrature: Lebedev. 
          Tag              B.-S. Rad. Rad. Pts. Rad. Cut. Ang. Pts.
          ---              ---------- --------- --------- ---------
          C                   0.70       70          13.0       590
          H                   0.35       60          14.0       590
          O                   0.60       70          14.0       590
          Cl                  1.00      123          12.0       770
          Grid pruning is: on 
          Number of quadrature shells:   953
          Spatial weights used:  Erf1
 
          Convergence Information
          -----------------------
          Convergence aids based upon iterative change in 
          total energy or number of iterations. 
          Levelshifting, if invoked, occurs when the 
          HOMO/LUMO gap drops below (HL_TOL):  1.00D-02
          DIIS, if invoked, will attempt to extrapolate 
          using up to (NFOCK): 10 stored Fock matrices.

                    Damping( 0%)  Levelshifting(0.5)       DIIS
                  --------------- ------------------- ---------------
          dE  on:    start            ASAP                start   
          dE off:    2 iters        *** iters           *** iters 

 
      Screening Tolerance Information
      -------------------------------
          Density screening/tol_rho:  1.00D-12
          AO Gaussian exp screening on grid/accAOfunc:  18
          CD Gaussian exp screening on grid/accCDfunc:  20
          XC Gaussian exp screening on grid/accXCfunc:  20
          Schwarz screening/accCoul:  1.00D-12

      Dispersion Parameters
      ---------------------

           DFT-D3BJ Model   
          s6 scale factor  :        1.000000000000
          s8 scale factor  :        0.787500000000
          a1 parameter     :        0.428900000000
          a2 parameter     :        4.440700000000
              vdW contrib  :       -0.011651417988


 Forcing the number of linearly dependent vectors to be  0
 
      Superposition of Atomic Density Guess
      -------------------------------------
 
 Sum of atomic energies:        -688.94818175
   Time after variat. SCF:      0.1
   Time prior to 1st pass:      0.1

 Grid_pts file          = ./08_CH3CH2ClCHCHOH.gridpts.00
 Record size in doubles =  12289        No. of grid_pts per rec  =   3070
 Max. records in memory =     19        Max. recs in file   =  67550051

 Grid integrated density:      56.999992616492
 Requested integration accuracy:   0.10E-06

           Memory utilization after 1st SCF pass: 
           Heap Space remaining (MW):        0.00                 476
          Stack Space remaining (MW):      288.36           288356780

   convergence    iter        energy       DeltaE   RMS-Dens  Diis-err    time
 ---------------- ----- ----------------- --------- --------- ---------  ------
 d= 0,ls=0.0,diis     1   -692.9673389517 -9.89D+02  1.20D-02  1.63D+01     0.5
                                                     1.22D-02  1.51D+01
 Grid integrated density:      54.999994030657
 Requested integration accuracy:   0.10E-06
 d= 0,ls=0.5,diis     2   -691.0416410283  1.93D+00  6.31D-03  4.40D-01     1.2
                                                     6.38D-03  4.11D-01
 d= 0,ls=0.5,diis     3   -691.2316542951 -1.90D-01  1.60D-03  1.86D-01     1.8
                                                     1.77D-03  1.84D-01
 d= 0,ls=0.5,diis     4   -691.2796467427 -4.80D-02  9.14D-04  4.07D-02     2.4
                                                     9.68D-04  3.98D-02
 d= 0,ls=0.5,diis     5   -691.2971844755 -1.75D-02  6.31D-04  1.37D-02     3.0
                                                     6.66D-04  1.35D-02
 d= 0,ls=0.5,diis     6   -691.3052115745 -8.03D-03  4.55D-04  4.75D-03     3.6
                                                     4.86D-04  4.77D-03
 d= 0,ls=0.5,diis     7   -691.3092294474 -4.02D-03  3.49D-04  2.00D-03     4.2
                                                     3.82D-04  2.17D-03
 d= 0,ls=0.5,diis     8   -691.3117274435 -2.50D-03  2.62D-04  8.43D-04     4.8
                                                     3.04D-04  1.12D-03
 d= 0,ls=0.5,diis     9   -691.3133884835 -1.66D-03  2.87D-04  3.73D-04     5.4
                                                     2.83D-04  6.56D-04
 d= 0,ls=0.5,diis    10   -691.3144482879 -1.06D-03  1.49D-04  9.05D-05     6.0
                                                     1.89D-04  4.92D-04
 d= 0,ls=0.5,diis    11   -691.3151857680 -7.37D-04  1.90D-04  7.72D-05     6.7
                                                     1.81D-04  4.28D-04
 d= 0,ls=0.5,diis    12   -691.3155737818 -3.88D-04  1.20D-04  1.45D-04     7.3
                                                     1.25D-04  5.52D-04
 d= 0,ls=0.5,diis    13   -691.3158427956 -2.69D-04  6.03D-05  2.29D-04     7.9
                                                     9.32D-05  6.44D-04
 d= 0,ls=0.5,diis    14   -691.3161531384 -3.10D-04  6.47D-05  1.98D-04     8.5
                                                     8.36D-05  5.61D-04
 Grid integrated density:      54.999994484823
 Requested integration accuracy:   0.10E-06
 d= 0,ls=0.5,diis    15   -691.3163270587 -1.74D-04  5.49D-05  2.61D-04     9.1
                                                     6.91D-05  5.96D-04
 Grid integrated density:      54.999994466927
 Requested integration accuracy:   0.10E-06
 d= 0,ls=0.5,diis    16   -691.3164577285 -1.31D-04  3.77D-05  2.97D-04     9.7
                                                     5.77D-05  6.08D-04
 Grid integrated density:      54.999994453865
 Requested integration accuracy:   0.10E-06
 d= 0,ls=0.5,diis    17   -691.3165941151 -1.36D-04  2.57D-05  2.80D-04    10.3
                                                     5.06D-05  5.60D-04
 Grid integrated density:      54.999994444969
 Requested integration accuracy:   0.10E-06
 d= 0,ls=0.5,diis    18   -691.3167327592 -1.39D-04  3.44D-05  2.52D-04    10.9
                                                     4.57D-05  4.95D-04
 Grid integrated density:      54.999994433440
 Requested integration accuracy:   0.10E-06
 d= 0,ls=0.5,diis    19   -691.3168089284 -7.62D-05  1.95D-05  2.64D-04    11.6
                                                     3.93D-05  4.90D-04
 Grid integrated density:      54.999994425773
 Requested integration accuracy:   0.10E-06
 d= 0,ls=0.5,diis    20   -691.3168993848 -9.05D-05  2.05D-05  2.42D-04    12.2
                                                     3.54D-05  4.43D-04
 Grid integrated density:      54.999994418240
 Requested integration accuracy:   0.10E-06
 d= 0,ls=0.5,diis    21   -691.3169617452 -6.24D-05  1.97D-05  2.39D-04    12.8
                                                     3.08D-05  4.21D-04
 Grid integrated density:      54.999994411144
 Requested integration accuracy:   0.10E-06
 d= 0,ls=0.5,diis    22   -691.3170056722 -4.39D-05  1.72D-05  2.44D-04    13.4
                                                     3.65D-05  4.13D-04
 Grid integrated density:      54.999994411302
 Requested integration accuracy:   0.10E-06
 d= 0,ls=0.5,diis    23   -691.3170965771 -9.09D-05  1.32D-05  1.88D-04    14.0
                                                     3.33D-05  3.28D-04
 Grid integrated density:      54.999994407781
 Requested integration accuracy:   0.10E-06
 d= 0,ls=0.5,diis    24   -691.3171823619 -8.58D-05  2.89D-05  1.40D-04    14.6
                                                     3.08D-05  2.53D-04
 Grid integrated density:      54.999994397149
 Requested integration accuracy:   0.10E-06
 d= 0,ls=0.5,diis    25   -691.3171883321 -5.97D-06  3.44D-05  1.66D-04    15.2
                                                     3.09D-05  2.76D-04
 Grid integrated density:      54.999994386530
 Requested integration accuracy:   0.10E-06
 d= 0,ls=0.5,diis    26   -691.3171473288  4.10D-05  1.59D-05  2.41D-04    15.8
                                                     1.81D-05  3.60D-04
 Grid integrated density:      54.999994382978
 Requested integration accuracy:   0.10E-06
 d= 0,ls=0.5,diis    27   -691.3171320968  1.52D-05  1.04D-05  2.74D-04    16.4
                                                     1.45D-05  3.97D-04
 Grid integrated density:      54.999994381560
 Requested integration accuracy:   0.10E-06
 d= 0,ls=0.5,diis    28   -691.3171243398  7.76D-06  7.08D-06  2.93D-04    17.0
                                                     1.26D-05  4.18D-04
 Grid integrated density:      54.999994381988
 Requested integration accuracy:   0.10E-06
 d= 0,ls=0.5,diis    29   -691.3171269168 -2.58D-06  1.02D-05  3.00D-04    17.6
                                                     1.56D-05  4.25D-04
 Grid integrated density:      54.999994383004
 Requested integration accuracy:   0.10E-06
 d= 0,ls=0.5,diis    30   -691.3171447804 -1.79D-05  5.30D-06  2.88D-04    18.2
                                                     1.19D-05  4.09D-04
 Grid integrated density:      54.999994383936
 Requested integration accuracy:   0.10E-06
 d= 0,ls=0.5,diis    31   -691.3171629366 -1.82D-05  8.18D-06  2.73D-04    18.8
                                                     1.32D-05  3.91D-04
 Grid integrated density:      54.999994386060
 Requested integration accuracy:   0.10E-06
 d= 0,ls=0.5,diis    32   -691.3171981337 -3.52D-05  5.29D-05  2.41D-04    19.5
                                                     5.33D-05  3.51D-04
 Grid integrated density:      54.999994399021
 Requested integration accuracy:   0.10E-06
 d= 0,ls=0.5,diis    33   -691.3173411694 -1.43D-04  2.44D-05  8.79D-05    20.1
                                                     3.86D-05  1.60D-04
 Grid integrated density:      54.999994400850
 Requested integration accuracy:   0.10E-06
 d= 0,ls=0.5,diis    34   -691.3174135714 -7.24D-05  1.15D-05  3.61D-05    20.7
                                                     2.40D-05  8.15D-05
 Grid integrated density:      54.999994394308
 Requested integration accuracy:   0.10E-06
 d= 0,ls=0.5,diis    35   -691.3174435720 -3.00D-05  1.80D-05  2.35D-05    21.3
                                                     2.11D-05  5.74D-05
 Grid integrated density:      54.999994386482
 Requested integration accuracy:   0.10E-06
 d= 0,ls=0.5,diis    36   -691.3174526077 -9.04D-06  1.20D-05  2.86D-05    21.9
                                                     1.68D-05  5.97D-05
 Grid integrated density:      54.999994382470
 Requested integration accuracy:   0.10E-06
 d= 0,ls=0.5,diis    37   -691.3174633236 -1.07D-05  1.65D-05  2.80D-05    22.5
                                                     1.60D-05  5.54D-05
 Grid integrated density:      54.999994377108
 Requested integration accuracy:   0.10E-06
 d= 0,ls=0.5,diis    38   -691.3174613301  1.99D-06  6.10D-06  3.89D-05    23.1
                                                     1.21D-05  6.69D-05
 Grid integrated density:      54.999994376328
 Requested integration accuracy:   0.10E-06
 d= 0,ls=0.5,diis    39   -691.3174701552 -8.83D-06  6.33D-06  3.56D-05    23.7
                                                     1.07D-05  6.13D-05
 Grid integrated density:      54.999994374085
 Requested integration accuracy:   0.10E-06
 d= 0,ls=0.5,diis    40   -691.3174739699 -3.81D-06  6.68D-06  3.65D-05    24.3
                                                     9.91D-06  6.09D-05
 Grid integrated density:      54.999994372641
 Requested integration accuracy:   0.10E-06
 d= 0,ls=0.5,diis    41   -691.3174761229 -2.15D-06  6.39D-06  3.84D-05    24.9
                                                     8.72D-06  6.20D-05
 Grid integrated density:      54.999994371752
 Requested integration accuracy:   0.10E-06
 d= 0,ls=0.5,diis    42   -691.3174768620 -7.39D-07  4.25D-06  4.13D-05    25.6
                                                     7.87D-06  6.45D-05
 Grid integrated density:      54.999994372074
 Requested integration accuracy:   0.10E-06
 d= 0,ls=0.5,diis    43   -691.3174810556 -4.19D-06  1.04D-05  3.94D-05    26.2
                                                     1.44D-05  6.13D-05
 Grid integrated density:      54.999994374256
 Requested integration accuracy:   0.10E-06
 d= 0,ls=0.5,diis    44   -691.3174941042 -1.30D-05  1.45D-05  2.84D-05    26.8
                                                     1.68D-05  4.61D-05
 Grid integrated density:      54.999994376353
 Requested integration accuracy:   0.10E-06
 d= 0,ls=0.5,diis    45   -691.3175111960 -1.71D-05  8.23D-06  1.26D-05    27.4
                                                     1.08D-05  2.42D-05
 Grid integrated density:      54.999994373823
 Requested integration accuracy:   0.10E-06
 d= 0,ls=0.5,diis    46   -691.3175137258 -2.53D-06  5.30D-06  1.42D-05    28.0
                                                     9.37D-06  2.48D-05
 Grid integrated density:      54.999994372699
 Requested integration accuracy:   0.10E-06
 d= 0,ls=0.5,diis    47   -691.3175174457 -3.72D-06  4.83D-06  1.36D-05    28.6
                                                     7.89D-06  2.31D-05
 Grid integrated density:      54.999994371514
 Requested integration accuracy:   0.10E-06
 d= 0,ls=0.5,diis    48   -691.3175190135 -1.57D-06  3.58D-06  1.47D-05    29.2
                                                     7.29D-06  2.37D-05
 Grid integrated density:      54.999994371105
 Requested integration accuracy:   0.10E-06
 d= 0,ls=0.5,diis    49   -691.3175210315 -2.02D-06  2.39D-06  1.46D-05    29.9
                                                     6.69D-06  2.30D-05
 Grid integrated density:      54.999994370883
 Requested integration accuracy:   0.10E-06
 d= 0,ls=0.5,diis    50   -691.3175231793 -2.15D-06  1.79D-06  1.42D-05    30.5
                                                     7.06D-06  2.20D-05
 Grid integrated density:      54.999994371368
 Requested integration accuracy:   0.10E-06
 d= 0,ls=0.5,diis    51   -691.3175268773 -3.70D-06  1.51D-06  1.17D-05    31.1
                                                     6.66D-06  1.87D-05
 Grid integrated density:      54.999994371668
 Requested integration accuracy:   0.10E-06
 d= 0,ls=0.5,diis    52   -691.3175299466 -3.07D-06  4.24D-06  1.01D-05    31.7
                                                     6.32D-06  1.62D-05
 Grid integrated density:      54.999994371680
 Requested integration accuracy:   0.10E-06
 d= 0,ls=0.5,diis    53   -691.3175318759 -1.93D-06  2.48D-06  9.62D-06    32.3
                                                     5.92D-06  1.52D-05
 Grid integrated density:      54.999994371604
 Requested integration accuracy:   0.10E-06
 d= 0,ls=0.5,diis    54   -691.3175332823 -1.41D-06  3.90D-06  9.48D-06    32.9
                                                     5.84D-06  1.47D-05
 Grid integrated density:      54.999994371731
 Requested integration accuracy:   0.10E-06
 d= 0,ls=0.5,diis    55   -691.3175342858 -1.00D-06  1.40D-06  9.67D-06    33.5
                                                     5.48D-06  1.45D-05
 Grid integrated density:      54.999994372102
 Requested integration accuracy:   0.10E-06
 d= 0,ls=0.5,diis    56   -691.3175358233 -1.54D-06  1.18D-06  8.98D-06    34.1
                                                     5.37D-06  1.35D-05
 Grid integrated density:      54.999994372424
 Requested integration accuracy:   0.10E-06
 d= 0,ls=0.5,diis    57   -691.3175371882 -1.36D-06  2.36D-06  8.55D-06    34.8
                                                     5.28D-06  1.28D-05
 Grid integrated density:      54.999994372920
 Requested integration accuracy:   0.10E-06
 d= 0,ls=0.5,diis    58   -691.3175385446 -1.36D-06  1.06D-06  8.08D-06    35.4
                                                     5.19D-06  1.21D-05
 Grid integrated density:      54.999994373373
 Requested integration accuracy:   0.10E-06
 d= 0,ls=0.5,diis    59   -691.3175399353 -1.39D-06  1.99D-06  7.48D-06    36.0
                                                     5.44D-06  1.12D-05
 Grid integrated density:      54.999994373850
 Requested integration accuracy:   0.10E-06
 d= 0,ls=0.5,diis    60   -691.3175416097 -1.67D-06  5.68D-06  6.61D-06    36.6
                                                     5.47D-06  9.93D-06
 Grid integrated density:      54.999994374450
 Requested integration accuracy:   0.10E-06
 d= 0,ls=0.5,diis    61   -691.3175424810 -8.71D-07  2.99D-06  6.55D-06    37.2
                                                     5.11D-06  9.58D-06
 Grid integrated density:      54.999994375234
 Requested integration accuracy:   0.10E-06
 d= 0,ls=0.5,diis    62   -691.3175438496 -1.37D-06  3.31D-06  5.88D-06    37.8
                                                     5.44D-06  8.56D-06
 Grid integrated density:      54.999994375715
 Requested integration accuracy:   0.10E-06
 d= 0,ls=0.5,diis    63   -691.3175455780 -1.73D-06  1.23D-06  4.74D-06    38.4
                                                     4.94D-06  7.21D-06
 Grid integrated density:      54.999994375753
 Requested integration accuracy:   0.10E-06
 d= 0,ls=0.5,diis    64   -691.3175466311 -1.05D-06  1.91D-06  4.39D-06    39.0
                                                     4.92D-06  6.66D-06
 Grid integrated density:      54.999994375884
 Requested integration accuracy:   0.10E-06
 d= 0,ls=0.5,diis    65   -691.3175478309 -1.20D-06  1.73D-06  3.77D-06    39.6
                                                     4.84D-06  5.89D-06
 Grid integrated density:      54.999994376004
 Requested integration accuracy:   0.10E-06
 d= 0,ls=0.5,diis    66   -691.3175490092 -1.18D-06  1.96D-06  3.17D-06    40.2
                                                     5.04D-06  5.08D-06
 Grid integrated density:      54.999994376379
 Requested integration accuracy:   0.10E-06
 d= 0,ls=0.5,diis    67   -691.3175503882 -1.38D-06  1.61D-06  2.43D-06    40.8
                                                     4.91D-06  4.08D-06
 Grid integrated density:      54.999994376538
 Requested integration accuracy:   0.10E-06
 d= 0,ls=0.5,diis    68   -691.3175516571 -1.27D-06  3.19D-06  1.72D-06    41.4
                                                     5.21D-06  3.14D-06
 Grid integrated density:      54.999994376666
 Requested integration accuracy:   0.10E-06
 d= 0,ls=0.5,diis    69   -691.3175528983 -1.24D-06  1.06D-06  1.14D-06    42.1
                                                     4.84D-06  2.32D-06
 Grid integrated density:      54.999994376612
 Requested integration accuracy:   0.10E-06
 d= 0,ls=0.5,diis    70   -691.3175539175 -1.02D-06  9.96D-07  7.58D-07    42.7
                                                     4.63D-06  1.71D-06
 Grid integrated density:      54.999994376434
 Requested integration accuracy:   0.10E-06
 d= 0,ls=0.5,diis    71   -691.3175546895 -7.72D-07  1.25D-06  5.87D-07    43.3
                                                     4.42D-06  1.38D-06
 Grid integrated density:      54.999994376281
 Requested integration accuracy:   0.10E-06
 d= 0,ls=0.5,diis    72   -691.3175553198 -6.30D-07  1.12D-06  5.17D-07    43.9
                                                     4.26D-06  1.20D-06
 Grid integrated density:      54.999994376178
 Requested integration accuracy:   0.10E-06
 d= 0,ls=0.5,diis    73   -691.3175558759 -5.56D-07  2.38D-06  4.83D-07    44.5
                                                     4.21D-06  1.09D-06
 Grid integrated density:      54.999994376106
 Requested integration accuracy:   0.10E-06
 d= 0,ls=0.5,diis    74   -691.3175562493 -3.73D-07  2.35D-06  5.99D-07    45.1
                                                     4.15D-06  1.18D-06
 Grid integrated density:      54.999994376136
 Requested integration accuracy:   0.10E-06
 d= 0,ls=0.5,diis    75   -691.3175565289 -2.80D-07  1.09D-06  7.59D-07    45.7
                                                     3.91D-06  1.33D-06
 Grid integrated density:      54.999994376372
 Requested integration accuracy:   0.10E-06
 d= 0,ls=0.5,diis    76   -691.3175570186 -4.90D-07  9.18D-07  6.33D-07    46.3
                                                     3.82D-06  1.17D-06
 Grid integrated density:      54.999994376672
 Requested integration accuracy:   0.10E-06
 d= 0,ls=0.5,diis    77   -691.3175574266 -4.08D-07  8.24D-07  6.03D-07    46.9
                                                     3.73D-06  1.10D-06
 Grid integrated density:      54.999994376933
 Requested integration accuracy:   0.10E-06
 d= 0,ls=0.5,diis    78   -691.3175578087 -3.82D-07  5.47D-07  5.78D-07    47.6
                                                     3.67D-06  1.05D-06
 Grid integrated density:      54.999994377300
 Requested integration accuracy:   0.10E-06
 d= 0,ls=0.5,diis    79   -691.3175582183 -4.10D-07  2.06D-06  5.25D-07    48.2
                                                     3.71D-06  9.65D-07
 Grid integrated density:      54.999994377796
 Requested integration accuracy:   0.10E-06
 d= 0,ls=0.5,diis    80   -691.3175586662 -4.48D-07  3.32D-06  4.22D-07    48.8
                                                     3.68D-06  8.04D-07
 Grid integrated density:      54.999994378347
 Requested integration accuracy:   0.10E-06
 d= 0,ls=0.5,diis    81   -691.3175590243 -3.58D-07  1.67D-06  4.37D-07    49.4
                                                     3.54D-06  7.38D-07
 Grid integrated density:      54.999994378791
 Requested integration accuracy:   0.10E-06
 d= 0,ls=0.5,diis    82   -691.3175593940 -3.70D-07  6.75D-07  4.07D-07    50.0
                                                     3.54D-06  6.49D-07
 Grid integrated density:      54.999994379097
 Requested integration accuracy:   0.10E-06
 d= 0,ls=0.5,diis    83   -691.3175597946 -4.01D-07  5.96D-07  3.17D-07    50.6
                                                     3.47D-06  5.33D-07
 Grid integrated density:      54.999994379292
 Requested integration accuracy:   0.10E-06
 d= 0,ls=0.5,diis    84   -691.3175601390 -3.44D-07  8.89D-07  2.84D-07    51.2
                                                     3.46D-06  4.85D-07
 Grid integrated density:      54.999994379398
 Requested integration accuracy:   0.10E-06
 d= 0,ls=0.5,diis    85   -691.3175604253 -2.86D-07  1.78D-06  3.13D-07    51.8
                                                     3.47D-06  5.10D-07
 Grid integrated density:      54.999994379574
 Requested integration accuracy:   0.10E-06
 d= 0,ls=0.5,diis    86   -691.3175606410 -2.16D-07  1.20D-06  4.15D-07    52.4
                                                     3.39D-06  6.02D-07
 Grid integrated density:      54.999994379862
 Requested integration accuracy:   0.10E-06
 d= 0,ls=0.5,diis    87   -691.3175609664 -3.25D-07  7.05D-07  3.32D-07    53.0
                                                     3.35D-06  5.42D-07
 Grid integrated density:      54.999994380130
 Requested integration accuracy:   0.10E-06
 d= 0,ls=0.5,diis    88   -691.3175612892 -3.23D-07  8.10D-07  2.66D-07    53.7
                                                     3.28D-06  4.83D-07
 Grid integrated density:      54.999994380484
 Requested integration accuracy:   0.10E-06
 d= 0,ls=0.5,diis    89   -691.3175615884 -2.99D-07  6.98D-07  2.48D-07    54.3
                                                     3.27D-06  4.52D-07
 Grid integrated density:      54.999994380857
 Requested integration accuracy:   0.10E-06
 d= 0,ls=0.5,diis    90   -691.3175619272 -3.39D-07  7.98D-07  1.65D-07    54.9
                                                     3.22D-06  3.54D-07
 Grid integrated density:      54.999994381184
 Requested integration accuracy:   0.10E-06
 d= 0,ls=0.5,diis    91   -691.3175622343 -3.07D-07  2.18D-07  1.24D-07    55.5
                                                     3.19D-06  2.93D-07
 Grid integrated density:      54.999994381381
 Requested integration accuracy:   0.10E-06
 d= 0,ls=0.5,diis    92   -691.3175625265 -2.92D-07  4.81D-07  9.04D-08    56.1
                                                     3.14D-06  2.53D-07
 Grid integrated density:      54.999994381549
 Requested integration accuracy:   0.10E-06
 d= 0,ls=0.5,diis    93   -691.3175627989 -2.72D-07  4.01D-07  7.50D-08    56.7
                                                     3.12D-06  2.27D-07
 Grid integrated density:      54.999994381700
 Requested integration accuracy:   0.10E-06
 d= 0,ls=0.5,diis    94   -691.3175630542 -2.55D-07  1.28D-06  6.95D-08    57.3
                                                     3.11D-06  2.18D-07
 Grid integrated density:      54.999994381852
 Requested integration accuracy:   0.10E-06
 d= 0,ls=0.5,diis    95   -691.3175632784 -2.24D-07  1.88D-06  9.54D-08    57.9
                                                     3.07D-06  2.37D-07
 Grid integrated density:      54.999994382131
 Requested integration accuracy:   0.10E-06
 d= 0,ls=0.5,diis    96   -691.3175634792 -2.01D-07  7.92D-07  1.45D-07    58.5
                                                     3.02D-06  2.72D-07
 Grid integrated density:      54.999994382272
 Requested integration accuracy:   0.10E-06
 d= 0,ls=0.5,diis    97   -691.3175637095 -2.30D-07  1.82D-06  1.31D-07    59.1
                                                     2.97D-06  2.75D-07
 Grid integrated density:      54.999994382651
 Requested integration accuracy:   0.10E-06
 d= 0,ls=0.5,diis    98   -691.3175639055 -1.96D-07  1.95D-06  1.74D-07    59.8
                                                     2.92D-06  3.04D-07
 Grid integrated density:      54.999994383135
 Requested integration accuracy:   0.10E-06
 d= 0,ls=0.5,diis    99   -691.3175641043 -1.99D-07  8.06D-07  2.13D-07    60.4
                                                     2.86D-06  3.16D-07
 Grid integrated density:      54.999994383435
 Requested integration accuracy:   0.10E-06
 d= 0,ls=0.5,diis   100   -691.3175643109 -2.07D-07  8.27D-07  2.19D-07    61.0
                                                     2.87D-06  3.18D-07
 Grid integrated density:      54.999994383618
 Requested integration accuracy:   0.10E-06
 d= 0,ls=0.5,diis   101   -691.3175645474 -2.37D-07  9.37D-07  1.71D-07    61.6
                                                     2.89D-06  2.90D-07
 Grid integrated density:      54.999994384075
 Requested integration accuracy:   0.10E-06
 d= 0,ls=0.5,diis   102   -691.3175647972 -2.50D-07  3.06D-06  1.34D-07    62.2
                                                     3.19D-06  2.39D-07
 Grid integrated density:      54.999994384152
 Requested integration accuracy:   0.10E-06
 d= 0,ls=0.5,diis   103   -691.3175650935 -2.96D-07  1.68D-06  2.34D-08    62.8
                                                     2.92D-06  1.44D-07
 Grid integrated density:      54.999994384449
 Requested integration accuracy:   0.10E-06
 d= 0,ls=0.5,diis   104   -691.3175653146 -2.21D-07  1.81D-06  2.72D-08    63.4
                                                     2.85D-06  1.29D-07
 Grid integrated density:      54.999994384581
 Requested integration accuracy:   0.10E-06
 d= 0,ls=0.5,diis   105   -691.3175655096 -1.95D-07  3.79D-06  5.41D-08    64.0
                                                     3.03D-06  1.38D-07
 Grid integrated density:      54.999994384852
 Requested integration accuracy:   0.10E-06
 d= 0,ls=0.5,diis   106   -691.3175656422 -1.33D-07  3.11D-06  1.76D-07    64.6
                                                     2.96D-06  1.95D-07
 Grid integrated density:      54.999994384865
 Requested integration accuracy:   0.10E-06
 d= 0,ls=0.5,diis   107   -691.3175659064 -2.64D-07  1.95D-06  5.02D-08    65.2
                                                     2.91D-06  1.36D-07
 Grid integrated density:      54.999994384698
 Requested integration accuracy:   0.10E-06
 d= 0,ls=0.5,diis   108   -691.3175661312 -2.25D-07  2.21D-06  1.11D-08    65.8
                                                     2.89D-06  1.14D-07
 Grid integrated density:      54.999994384822
 Requested integration accuracy:   0.10E-06
 d= 0,ls=0.5,diis   109   -691.3175663057 -1.74D-07  1.57D-06  4.37D-08    66.4
                                                     2.76D-06  1.36D-07
 Grid integrated density:      54.999994385055
 Requested integration accuracy:   0.10E-06
 d= 0,ls=0.5,diis   110   -691.3175664734 -1.68D-07  7.69D-07  7.72D-08    67.1
                                                     2.66D-06  1.57D-07
 Grid integrated density:      54.999994385301
 Requested integration accuracy:   0.10E-06
 d= 0,ls=0.5,diis   111   -691.3175666498 -1.76D-07  5.19D-07  8.77D-08    67.7
                                                     2.67D-06  1.66D-07
 Grid integrated density:      54.999994385466
 Requested integration accuracy:   0.10E-06
 d= 0,ls=0.5,diis   112   -691.3175668443 -1.95D-07  1.56D-06  6.79D-08    68.3
                                                     2.73D-06  1.60D-07
 Grid integrated density:      54.999994385579
 Requested integration accuracy:   0.10E-06
 d= 0,ls=0.5,diis   113   -691.3175670566 -2.12D-07  1.78D-06  2.74D-08    68.9
                                                     2.81D-06  1.32D-07
 Grid integrated density:      54.999994385695
 Requested integration accuracy:   0.10E-06
 d= 0,ls=0.5,diis   114   -691.3175672609 -2.04D-07  5.26D-07  1.66D-08    69.5
                                                     2.69D-06  1.10D-07
 Grid integrated density:      54.999994385834
 Requested integration accuracy:   0.10E-06
 d= 0,ls=0.5,diis   115   -691.3175674558 -1.95D-07  3.57D-06  1.50D-08    70.1
                                                     2.89D-06  9.80D-08
 Grid integrated density:      54.999994386241
 Requested integration accuracy:   0.10E-06
 d= 0,ls=0.5,diis   116   -691.3175676411 -1.85D-07  1.21D-06  8.05D-09    70.7
                                                     2.59D-06  9.99D-08
 Grid integrated density:      54.999994386460
 Requested integration accuracy:   0.10E-06
 d= 0,ls=0.5,diis   117   -691.3175678162 -1.75D-07  4.96D-06  1.51D-08    71.4
                                                     3.03D-06  1.03D-07
 Grid integrated density:      54.999994386932
 Requested integration accuracy:   0.10E-06
 d= 0,ls=0.5,diis   118   -691.3175679109 -9.47D-08  8.86D-07  1.63D-07    72.0
                                                     2.44D-06  1.71D-07
 Grid integrated density:      54.999994387116
 Requested integration accuracy:   0.10E-06
 d= 0,ls=0.5,diis   119   -691.3175680741 -1.63D-07  1.65D-06  1.56D-07    72.6
                                                     2.56D-06  1.68D-07
 Grid integrated density:      54.999994387124
 Requested integration accuracy:   0.10E-06
 d= 0,ls=0.5,diis   120   -691.3175682863 -2.12D-07  2.93D-06  7.03D-08    73.2
                                                     2.82D-06  1.30D-07
 Grid integrated density:      54.999994386931
 Requested integration accuracy:   0.10E-06
 d= 0,ls=0.5,diis   121   -691.3175684998 -2.13D-07  8.24D-07  5.79D-09    73.8
                                                     2.62D-06  9.48D-08
 Grid integrated density:      54.999994386829
 Requested integration accuracy:   0.10E-06
 d= 0,ls=0.5,diis   122   -691.3175686803 -1.80D-07  2.35D-06  2.00D-09    74.4
                                                     2.73D-06  8.83D-08
 Grid integrated density:      54.999994386941
 Requested integration accuracy:   0.10E-06
 d= 0,ls=0.5,diis   123   -691.3175688454 -1.65D-07  1.95D-06  1.03D-08    75.0
                                                     2.61D-06  9.50D-08
 Grid integrated density:      54.999994387156
 Requested integration accuracy:   0.10E-06
 d= 0,ls=0.5,diis   124   -691.3175689935 -1.48D-07  1.52D-06  4.30D-08    75.6
                                                     2.52D-06  1.15D-07
 Grid integrated density:      54.999994387389
 Requested integration accuracy:   0.10E-06
 d= 0,ls=0.5,diis   125   -691.3175691346 -1.41D-07  1.00D-06  7.88D-08    76.2
                                                     2.48D-06  1.36D-07
 Grid integrated density:      54.999994387527
 Requested integration accuracy:   0.10E-06
 d= 0,ls=0.5,diis   126   -691.3175693172 -1.83D-07  1.21D-06  4.05D-08    76.9
                                                     2.53D-06  1.21D-07
 Grid integrated density:      54.999994387621
 Requested integration accuracy:   0.10E-06
 d= 0,ls=0.5,diis   127   -691.3175694994 -1.82D-07  1.39D-06  1.53D-08    77.5
                                                     2.57D-06  1.05D-07
 Grid integrated density:      54.999994387656
 Requested integration accuracy:   0.10E-06
 d= 0,ls=0.5,diis   128   -691.3175696732 -1.74D-07  4.27D-07  1.51D-08    78.1
                                                     2.50D-06  9.50D-08
 Grid integrated density:      54.999994387767
 Requested integration accuracy:   0.10E-06
 d= 0,ls=0.5,diis   129   -691.3175698429 -1.70D-07  1.42D-06  1.95D-08    78.7
                                                     2.50D-06  8.98D-08
 Grid integrated density:      54.999994387988
 Requested integration accuracy:   0.10E-06
 d= 0,ls=0.5,diis   130   -691.3175700176 -1.75D-07  3.19D-06  4.63D-09    79.3
                                                     2.68D-06  8.28D-08
 Grid integrated density:      54.999994388350
 Requested integration accuracy:   0.10E-06
 d= 0,ls=0.5,diis   131   -691.3175701725 -1.55D-07  2.47D-06  1.67D-08    79.9
                                                     2.50D-06  9.34D-08
 Grid integrated density:      54.999994388630
 Requested integration accuracy:   0.10E-06
 d= 0,ls=0.5,diis   132   -691.3175703016 -1.29D-07  5.21D-07  6.69D-08    80.5
                                                     2.33D-06  1.18D-07
 Grid integrated density:      54.999994388695
 Requested integration accuracy:   0.10E-06
 d= 0,ls=0.5,diis   133   -691.3175704621 -1.60D-07  1.23D-06  5.21D-08    81.1
                                                     2.45D-06  1.13D-07
 Grid integrated density:      54.999994388618
 Requested integration accuracy:   0.10E-06
 d= 0,ls=0.5,diis   134   -691.3175706409 -1.79D-07  1.75D-06  1.51D-08    81.7
                                                     2.57D-06  9.49D-08
 Grid integrated density:      54.999994388438
 Requested integration accuracy:   0.10E-06
 d= 0,ls=0.5,diis   135   -691.3175708122 -1.71D-07  4.01D-07  6.05D-09    82.3
                                                     2.47D-06  8.38D-08
 Grid integrated density:      54.999994388368
 Requested integration accuracy:   0.10E-06
 d= 0,ls=0.5,diis   136   -691.3175709753 -1.63D-07  2.19D-06  7.39D-09    83.0
                                                     2.56D-06  8.10D-08
 Grid integrated density:      54.999994388479
 Requested integration accuracy:   0.10E-06
 d= 0,ls=0.5,diis   137   -691.3175711351 -1.60D-07  2.06D-06  2.86D-09    83.6
                                                     2.49D-06  8.30D-08
 Grid integrated density:      54.999994388665
 Requested integration accuracy:   0.10E-06
 d= 0,ls=0.5,diis   138   -691.3175712764 -1.41D-07  1.15D-06  2.74D-08    84.2
                                                     2.36D-06  9.76D-08
 Grid integrated density:      54.999994388836
 Requested integration accuracy:   0.10E-06
 d= 0,ls=0.5,diis   139   -691.3175714178 -1.41D-07  3.23D-07  4.50D-08    84.8
                                                     2.32D-06  1.08D-07
 Grid integrated density:      54.999994388957
 Requested integration accuracy:   0.10E-06
 d= 0,ls=0.5,diis   140   -691.3175715734 -1.56D-07  6.81D-07  3.66D-08    85.4
                                                     2.36D-06  1.07D-07
 Grid integrated density:      54.999994389018
 Requested integration accuracy:   0.10E-06
 d= 0,ls=0.5,diis   141   -691.3175717387 -1.65D-07  1.73D-06  1.67D-08    86.0
                                                     2.51D-06  9.69D-08
 Grid integrated density:      54.999994389006
 Requested integration accuracy:   0.10E-06
 d= 0,ls=0.5,diis   142   -691.3175719045 -1.66D-07  4.97D-07  1.13D-08    86.6
                                                     2.40D-06  8.56D-08
 Grid integrated density:      54.999994389056
 Requested integration accuracy:   0.10E-06
 d= 0,ls=0.5,diis   143   -691.3175720621 -1.58D-07  1.62D-06  2.00D-08    87.2
                                                     2.42D-06  8.32D-08
 Grid integrated density:      54.999994389246
 Requested integration accuracy:   0.10E-06
 d= 0,ls=0.5,diis   144   -691.3175722275 -1.65D-07  1.91D-06  2.69D-09    87.8
                                                     2.42D-06  7.79D-08
 Grid integrated density:      54.999994389434
 Requested integration accuracy:   0.10E-06
 d= 0,ls=0.5,diis   145   -691.3175723807 -1.53D-07  2.02D-06  4.01D-09    88.4
                                                     2.39D-06  8.16D-08
 Grid integrated density:      54.999994389626
 Requested integration accuracy:   0.10E-06
 d= 0,ls=0.5,diis   146   -691.3175725174 -1.37D-07  8.28D-07  2.95D-08    89.1
                                                     2.26D-06  9.58D-08
 Grid integrated density:      54.999994389703
 Requested integration accuracy:   0.10E-06
 d= 0,ls=0.5,diis   147   -691.3175726623 -1.45D-07  8.96D-07  3.51D-08    89.7
                                                     2.33D-06  9.95D-08
 Grid integrated density:      54.999994389632
 Requested integration accuracy:   0.10E-06
 d= 0,ls=0.5,diis   148   -691.3175728283 -1.66D-07  1.04D-06  8.77D-09    90.3
                                                     2.40D-06  8.63D-08
 Grid integrated density:      54.999994389513
 Requested integration accuracy:   0.10E-06
 d= 0,ls=0.5,diis   149   -691.3175729890 -1.61D-07  4.67D-07  2.82D-09    90.9
                                                     2.38D-06  7.91D-08
 Grid integrated density:      54.999994389419
 Requested integration accuracy:   0.10E-06
 d= 0,ls=0.5,diis   150   -691.3175731439 -1.55D-07  9.34D-07  9.11D-09    91.5
                                                     2.37D-06  7.79D-08
 Grid integrated density:      54.999994389427
 Requested integration accuracy:   0.10E-06
 d= 0,ls=0.5,diis   151   -691.3175733015 -1.58D-07  1.86D-06  3.02D-09    92.2
                                                     2.43D-06  7.63D-08
 Grid integrated density:      54.999994389528
 Requested integration accuracy:   0.10E-06
 d= 0,ls=0.5,diis   152   -691.3175734522 -1.51D-07  1.32D-06  3.78D-09    92.8
                                                     2.33D-06  8.04D-08
 Grid integrated density:      54.999994389638
 Requested integration accuracy:   0.10E-06
 d= 0,ls=0.5,diis   153   -691.3175735956 -1.43D-07  8.49D-07  1.46D-08    93.4
                                                     2.27D-06  8.76D-08
 Grid integrated density:      54.999994389738
 Requested integration accuracy:   0.10E-06
 d= 0,ls=0.5,diis   154   -691.3175737399 -1.44D-07  2.55D-07  2.15D-08    94.0
                                                     2.26D-06  9.21D-08
 Grid integrated density:      54.999994389781
 Requested integration accuracy:   0.10E-06
 d= 0,ls=0.5,diis   155   -691.3175738944 -1.55D-07  9.89D-07  1.17D-08    94.6
                                                     2.35D-06  8.75D-08
 Grid integrated density:      54.999994389777
 Requested integration accuracy:   0.10E-06
 d= 0,ls=0.5,diis   156   -691.3175740542 -1.60D-07  9.68D-07  2.57D-09    95.2
                                                     2.39D-06  7.92D-08
 Grid integrated density:      54.999994389739
 Requested integration accuracy:   0.10E-06
 d= 0,ls=0.5,diis   157   -691.3175742059 -1.52D-07  3.86D-07  1.68D-08    95.8
                                                     2.33D-06  7.87D-08
 Grid integrated density:      54.999994389765
 Requested integration accuracy:   0.10E-06
 d= 0,ls=0.5,diis   158   -691.3175743615 -1.56D-07  2.22D-06  1.74D-08    96.4
                                                     2.45D-06  7.78D-08
 Grid integrated density:      54.999994389917
 Requested integration accuracy:   0.10E-06
 d= 0,ls=0.5,diis   159   -691.3175745204 -1.59D-07  1.29D-06  8.83D-10    97.1
                                                     2.30D-06  7.67D-08
 Grid integrated density:      54.999994390006
 Requested integration accuracy:   0.10E-06
 d= 0,ls=0.5,diis   160   -691.3175746681 -1.48D-07  1.58D-06  4.82D-09    97.7
                                                     2.30D-06  8.06D-08
 Grid integrated density:      54.999994390099
 Requested integration accuracy:   0.10E-06
 d= 0,ls=0.5,diis   161   -691.3175748056 -1.37D-07  3.27D-07  2.29D-08    98.3
                                                     2.23D-06  9.07D-08
 Grid integrated density:      54.999994390098
 Requested integration accuracy:   0.10E-06
 d= 0,ls=0.5,diis   162   -691.3175749589 -1.53D-07  1.77D-07  1.22D-08    98.9
                                                     2.24D-06  8.58D-08
 Grid integrated density:      54.999994390080
 Requested integration accuracy:   0.10E-06
 d= 0,ls=0.5,diis   163   -691.3175751122 -1.53D-07  9.75D-07  5.88D-09    99.5
                                                     2.35D-06  8.22D-08
 Grid integrated density:      54.999994389974
 Requested integration accuracy:   0.10E-06
 d= 0,ls=0.5,diis   164   -691.3175752695 -1.57D-07  2.51D-07  1.98D-09   100.1
                                                     2.32D-06  7.60D-08
 Grid integrated density:      54.999994389904
 Requested integration accuracy:   0.10E-06
 d= 0,ls=0.5,diis   165   -691.3175754219 -1.52D-07  9.28D-07  8.10D-09   100.7
                                                     2.32D-06  7.59D-08
 Grid integrated density:      54.999994389910
 Requested integration accuracy:   0.10E-06
 d= 0,ls=0.5,diis   166   -691.3175755773 -1.55D-07  7.98D-07  2.57D-09   101.3
                                                     2.30D-06  7.52D-08
 Grid integrated density:      54.999994389927
 Requested integration accuracy:   0.10E-06
 d= 0,ls=0.5,diis   167   -691.3175757305 -1.53D-07  6.76D-07  8.33D-10   101.9
                                                     2.28D-06  7.55D-08
 Grid integrated density:      54.999994389947
 Requested integration accuracy:   0.10E-06
 d= 0,ls=0.5,diis   168   -691.3175758828 -1.52D-07  4.12D-07  3.22D-10   102.5
                                                     2.27D-06  7.59D-08
 Grid integrated density:      54.999994389953
 Requested integration accuracy:   0.10E-06
 d= 0,ls=0.5,diis   169   -691.3175760353 -1.52D-07  1.26D-07  4.99D-10   103.1
                                                     2.29D-06  7.57D-08
 Grid integrated density:      54.999994389929
 Requested integration accuracy:   0.10E-06
 d= 0,ls=0.5,diis   170   -691.3175761881 -1.53D-07  5.33D-07  3.61D-09   103.8
                                                     2.35D-06  7.53D-08
 Grid integrated density:      54.999994389866
 Requested integration accuracy:   0.10E-06
 d= 0,ls=0.5,diis   171   -691.3175763378 -1.50D-07  5.19D-07  1.98D-08   104.4
                                                     2.38D-06  7.78D-08
 Grid integrated density:      54.999994389793
 Requested integration accuracy:   0.10E-06
 d= 0,ls=0.5,diis   172   -691.3175764836 -1.46D-07  3.60D-07  4.79D-08   105.0
                                                     2.40D-06  8.48D-08
 Grid integrated density:      54.999994389724
 Requested integration accuracy:   0.10E-06
 d= 0,ls=0.5,diis   173   -691.3175766286 -1.45D-07  2.14D-07  8.04D-08   105.6
                                                     2.42D-06  9.40D-08
 Grid integrated density:      54.999994389651
 Requested integration accuracy:   0.10E-06
 d= 0,ls=0.5,diis   174   -691.3175767744 -1.46D-07  7.62D-07  1.14D-07   106.2
                                                     2.50D-06  1.04D-07
 Grid integrated density:      54.999994389543
 Requested integration accuracy:   0.10E-06
 d= 0,ls=0.5,diis   175   -691.3175769014 -1.27D-07  1.42D-07  1.94D-07   106.8
                                                     2.48D-06  1.30D-07
 Grid integrated density:      54.999994389459
 Requested integration accuracy:   0.10E-06
 d= 0,ls=0.5,diis   176   -691.3175770470 -1.46D-07  2.72D-07  2.34D-07   107.5
                                                     2.52D-06  1.43D-07
 Grid integrated density:      54.999994389364
 Requested integration accuracy:   0.10E-06
 d= 0,ls=0.5,diis   177   -691.3175771832 -1.36D-07  1.69D-07  2.99D-07   108.1
                                                     2.53D-06  1.66D-07
 Grid integrated density:      54.999994389278
 Requested integration accuracy:   0.10E-06
 d= 0,ls=0.5,diis   178   -691.3175773359 -1.53D-07  8.68D-07  3.32D-07   108.7
                                                     2.53D-06  1.78D-07
 Grid integrated density:      54.999994389236
 Requested integration accuracy:   0.10E-06
 d= 0,ls=0.5,diis   179   -691.3175775197 -1.84D-07  6.52D-07  3.01D-07   109.3
                                                     2.52D-06  1.69D-07
 Grid integrated density:      54.999994389185
 Requested integration accuracy:   0.10E-06
 d= 0,ls=0.5,diis   180   -691.3175776939 -1.74D-07  8.96D-07  2.94D-07   109.9
                                                     2.52D-06  1.67D-07
 Grid integrated density:      54.999994389139
 Requested integration accuracy:   0.10E-06
 d= 0,ls=0.5,diis   181   -691.3175778791 -1.85D-07  9.43D-07  2.63D-07   110.5
                                                     2.51D-06  1.58D-07
 Grid integrated density:      54.999994389110
 Requested integration accuracy:   0.10E-06
 d= 0,ls=0.5,diis   182   -691.3175780647 -1.86D-07  5.47D-07  2.32D-07   111.1
                                                     2.49D-06  1.48D-07
 Grid integrated density:      54.999994389058
 Requested integration accuracy:   0.10E-06
 d= 0,ls=0.5,diis   183   -691.3175782339 -1.69D-07  4.72D-07  2.35D-07   111.8
                                                     2.49D-06  1.50D-07
 Grid integrated density:      54.999994389018
 Requested integration accuracy:   0.10E-06
 d= 0,ls=0.5,diis   184   -691.3175783996 -1.66D-07  1.91D-06  2.44D-07   112.4
                                                     2.78D-06  1.54D-07
 Grid integrated density:      54.999994388860
 Requested integration accuracy:   0.10E-06
 d= 0,ls=0.5,diis   185   -691.3175784546 -5.50D-08  7.70D-07  4.96D-07   113.0
                                                     2.68D-06  2.41D-07
 Grid integrated density:      54.999994388707
 Requested integration accuracy:   0.10E-06
 d= 0,ls=0.5,diis   186   -691.3175785525 -9.79D-08  7.27D-07  6.48D-07   113.6
                                                     2.64D-06  2.97D-07
 Grid integrated density:      54.999994388602
 Requested integration accuracy:   0.10E-06
 d= 0,ls=0.5,diis   187   -691.3175787367 -1.84D-07  2.39D-06  6.22D-07   114.2
                                                     2.78D-06  2.93D-07
 Grid integrated density:      54.999994388591
 Requested integration accuracy:   0.10E-06
 d= 0,ls=0.5,diis   188   -691.3175790164 -2.80D-07  1.32D-06  4.06D-07   114.8
                                                     2.60D-06  2.19D-07
 Grid integrated density:      54.999994388524
 Requested integration accuracy:   0.10E-06
 d= 0,ls=0.5,diis   189   -691.3175792278 -2.11D-07  3.06D-07  3.39D-07   115.3
                                                     2.56D-06  1.97D-07
 Grid integrated density:      54.999994388421
 Requested integration accuracy:   0.10E-06
 d= 0,ls=0.5,diis   190   -691.3175793821 -1.54D-07  1.76D-07  3.89D-07   115.8
                                                     2.58D-06  2.15D-07
 Grid integrated density:      54.999994388320
 Requested integration accuracy:   0.10E-06
 d= 0,ls=0.5,diis   191   -691.3175795265 -1.44D-07  2.34D-07  4.55D-07   116.4
                                                     2.59D-06  2.39D-07
 Grid integrated density:      54.999994388216
 Requested integration accuracy:   0.10E-06
 d= 0,ls=0.5,diis   192   -691.3175796848 -1.58D-07  8.32D-07  4.91D-07   116.9
                                                     2.60D-06  2.54D-07
 Grid integrated density:      54.999994388140
 Requested integration accuracy:   0.10E-06
 d= 0,ls=0.5,diis   193   -691.3175798763 -1.92D-07  1.72D-07  4.59D-07   117.4
                                                     2.62D-06  2.46D-07
 Grid integrated density:      54.999994388025
 Requested integration accuracy:   0.10E-06
 d= 0,ls=0.5,diis   194   -691.3175800160 -1.40D-07  9.08D-08  5.41D-07   118.0
                                                     2.64D-06  2.77D-07
 Grid integrated density:      54.999994387905
 Requested integration accuracy:   0.10E-06
 d= 0,ls=0.5,diis   195   -691.3175801643 -1.48D-07  1.87D-07  6.03D-07   118.5
                                                     2.66D-06  3.02D-07
 Grid integrated density:      54.999994387798
 Requested integration accuracy:   0.10E-06
 d= 0,ls=0.5,diis   196   -691.3175803064 -1.42D-07  1.09D-07  6.81D-07   119.1
                                                     2.68D-06  3.32D-07
 Grid integrated density:      54.999994387669
 Requested integration accuracy:   0.10E-06
 d= 0,ls=0.5,diis   197   -691.3175804550 -1.49D-07  3.61D-07  7.48D-07   119.6
                                                     2.74D-06  3.58D-07
 Grid integrated density:      54.999994387531
 Requested integration accuracy:   0.10E-06
 d= 0,ls=0.5,diis   198   -691.3175805680 -1.13D-07  1.03D-06  8.92D-07   120.2
                                                     2.86D-06  4.14D-07
 Grid integrated density:      54.999994387344
 Requested integration accuracy:   0.10E-06
 d= 0,ls=0.5,diis   199   -691.3175806169 -4.88D-08  1.65D-06  1.17D-06   120.7
                                                     2.85D-06  5.20D-07
 Grid integrated density:      54.999994387202
 Requested integration accuracy:   0.10E-06
 d= 0,ls=0.5,diis   200   -691.3175808981 -2.81D-07  8.76D-07  9.65D-07   121.3
                                                     2.86D-06  4.49D-07
 Grid integrated density:      54.999994387012
 Requested integration accuracy:   0.10E-06
 d= 0,ls=0.5,diis   201   -691.3175809601 -6.20D-08  1.29D-06  1.24D-06   121.8
                                                     2.99D-06  5.49D-07
 Grid integrated density:      54.999994386817
 Requested integration accuracy:   0.10E-06
 d= 0,ls=0.5,diis   202   -691.3175809615 -1.40D-09  1.19D-06  1.62D-06   122.3
                                                     3.05D-06  6.95D-07
 Grid integrated density:      54.999994386576
 Requested integration accuracy:   0.10E-06
 d= 0,ls=0.5,diis   203   -691.3175809519  9.58D-09  1.22D-06  2.02D-06   122.9
                                                     3.13D-06  8.51D-07
 Grid integrated density:      54.999994386322
 Requested integration accuracy:   0.10E-06
 d= 0,ls=0.5,diis   204   -691.3175809125  3.94D-08  5.52D-06  2.48D-06   123.4
                                                     3.89D-06  1.04D-06
 Grid integrated density:      54.999994386221
 Requested integration accuracy:   0.10E-06
 d= 0,ls=0.5,diis   205   -691.3175816796 -7.67D-07  1.99D-06  1.31D-06   124.0
                                                     2.97D-06  6.06D-07
 Grid integrated density:      54.999994386114
 Requested integration accuracy:   0.10E-06
 d= 0,ls=0.5,diis   206   -691.3175820032 -3.24D-07  1.98D-06  1.11D-06   124.5
                                                     2.91D-06  5.22D-07
 Grid integrated density:      54.999994386067
 Requested integration accuracy:   0.10E-06
 d= 0,ls=0.5,diis   207   -691.3175823209 -3.18D-07  9.20D-07  8.88D-07   125.1
                                                     2.88D-06  4.36D-07
 Grid integrated density:      54.999994385961
 Requested integration accuracy:   0.10E-06
 d= 0,ls=0.5,diis   208   -691.3175824028 -8.19D-08  9.63D-07  1.15D-06   125.6
                                                     2.94D-06  5.25D-07
 Grid integrated density:      54.999994385885
 Requested integration accuracy:   0.10E-06
 d= 0,ls=0.5,diis   209   -691.3175824508 -4.79D-08  3.06D-07  1.45D-06   126.2
                                                     2.93D-06  6.45D-07
 Grid integrated density:      54.999994385751
 Requested integration accuracy:   0.10E-06
 d= 0,ls=0.5,diis   210   -691.3175825546 -1.04D-07  5.83D-07  1.62D-06   126.7
                                                     2.93D-06  7.23D-07
 Grid integrated density:      54.999994385608
 Requested integration accuracy:   0.10E-06
 d= 0,ls=0.5,diis   211   -691.3175827443 -1.90D-07  2.93D-06  1.63D-06   127.3
                                                     3.19D-06  7.39D-07
 Grid integrated density:      54.999994385462
 Requested integration accuracy:   0.10E-06
 d= 0,ls=0.5,diis   212   -691.3175831865 -4.42D-07  1.96D-06  1.15D-06   127.8
                                                     2.94D-06  5.59D-07
 Grid integrated density:      54.999994385383
 Requested integration accuracy:   0.10E-06
 d= 0,ls=0.5,diis   213   -691.3175835079 -3.21D-07  3.16D-06  9.28D-07   128.3
                                                     3.12D-06  4.70D-07
 Grid integrated density:      54.999994385364
 Requested integration accuracy:   0.10E-06
 d= 0,ls=0.5,diis   214   -691.3175839044 -3.97D-07  1.51D-06  5.47D-07   128.9
                                                     2.75D-06  3.16D-07
 Grid integrated density:      54.999994385356
 Requested integration accuracy:   0.10E-06
 d= 0,ls=0.5,diis   215   -691.3175841556 -2.51D-07  1.75D-06  4.55D-07   129.4
                                                     2.78D-06  2.74D-07
 Grid integrated density:      54.999994385321
 Requested integration accuracy:   0.10E-06
 d= 0,ls=0.5,diis   216   -691.3175844190 -2.63D-07  7.87D-07  3.27D-07   130.0
                                                     2.64D-06  2.16D-07
 Grid integrated density:      54.999994385325
 Requested integration accuracy:   0.10E-06
 d= 0,ls=0.5,diis   217   -691.3175846211 -2.02D-07  1.78D-06  3.16D-07   130.5
                                                     2.70D-06  2.03D-07
 Grid integrated density:      54.999994385357
 Requested integration accuracy:   0.10E-06
 d= 0,ls=0.5,diis   218   -691.3175848659 -2.45D-07  1.58D-06  2.04D-07   131.0
                                                     2.64D-06  1.57D-07
 Grid integrated density:      54.999994385386
 Requested integration accuracy:   0.10E-06
 d= 0,ls=0.5,diis   219   -691.3175850889 -2.23D-07  4.15D-06  1.34D-07   131.6
                                                     3.06D-06  1.29D-07
 Grid integrated density:      54.999994385612
 Requested integration accuracy:   0.10E-06
 d= 0,ls=0.5,diis   220   -691.3175853262 -2.37D-07  1.55D-06  1.20D-08   132.1
                                                     2.45D-06  9.44D-08
 Grid integrated density:      54.999994385709
 Requested integration accuracy:   0.10E-06
 d= 0,ls=0.5,diis   221   -691.3175855016 -1.75D-07  8.82D-07  5.66D-09   132.6
                                                     2.39D-06  9.29D-08
 Grid integrated density:      54.999994385763
 Requested integration accuracy:   0.10E-06
 d= 0,ls=0.5,diis   222   -691.3175856733 -1.72D-07  5.16D-07  3.57D-09   133.2
                                                     2.38D-06  9.10D-08
 Grid integrated density:      54.999994385785
 Requested integration accuracy:   0.10E-06
 d= 0,ls=0.5,diis   223   -691.3175858451 -1.72D-07  4.38D-07  1.68D-09   133.7
                                                     2.38D-06  8.85D-08
 Grid integrated density:      54.999994385796
 Requested integration accuracy:   0.10E-06
 d= 0,ls=0.5,diis   224   -691.3175860166 -1.72D-07  5.02D-07  7.77D-10   134.2
                                                     2.38D-06  8.68D-08
 Grid integrated density:      54.999994385818
 Requested integration accuracy:   0.10E-06
 d= 0,ls=0.5,diis   225   -691.3175861877 -1.71D-07  2.68D-07  4.89D-10   134.8
                                                     2.39D-06  8.61D-08
 Grid integrated density:      54.999994385811
 Requested integration accuracy:   0.10E-06
 d= 0,ls=0.5,diis   226   -691.3175863595 -1.72D-07  1.26D-07  1.12D-09   135.3
                                                     2.41D-06  8.50D-08
 Grid integrated density:      54.999994385780
 Requested integration accuracy:   0.10E-06
 d= 0,ls=0.5,diis   227   -691.3175865314 -1.72D-07  1.92D-07  5.17D-09   135.9
                                                     2.42D-06  8.46D-08
 Grid integrated density:      54.999994385754
 Requested integration accuracy:   0.10E-06
 d= 0,ls=0.5,diis   228   -691.3175867038 -1.72D-07  1.99D-07  9.68D-09   136.4
                                                     2.44D-06  8.51D-08
 Grid integrated density:      54.999994385718
 Requested integration accuracy:   0.10E-06
 d= 0,ls=0.5,diis   229   -691.3175868767 -1.73D-07  6.68D-08  1.56D-08   136.9
                                                     2.46D-06  8.64D-08
 Grid integrated density:      54.999994385663
 Requested integration accuracy:   0.10E-06
 d= 0,ls=0.5,diis   230   -691.3175870485 -1.72D-07  6.17D-08  2.74D-08   137.5
                                                     2.48D-06  8.93D-08
 Grid integrated density:      54.999994385600
 Requested integration accuracy:   0.10E-06
 d= 0,ls=0.5,diis   231   -691.3175872195 -1.71D-07  8.64D-08  4.40D-08   138.0
                                                     2.50D-06  9.38D-08
 Grid integrated density:      54.999994385539
 Requested integration accuracy:   0.10E-06
 d= 0,ls=0.5,diis   232   -691.3175873922 -1.73D-07  4.05D-07  5.98D-08   138.5
                                                     2.56D-06  9.84D-08
 Grid integrated density:      54.999994385445
 Requested integration accuracy:   0.10E-06
 d= 0,ls=0.5,diis   233   -691.3175875548 -1.63D-07  7.35D-07  1.04D-07   139.1
                                                     2.63D-06  1.12D-07
 Grid integrated density:      54.999994385316
 Requested integration accuracy:   0.10E-06
 d= 0,ls=0.5,diis   234   -691.3175877044 -1.50D-07  1.62D-07  1.81D-07   139.6
                                                     2.61D-06  1.36D-07
 Grid integrated density:      54.999994385224
 Requested integration accuracy:   0.10E-06
 d= 0,ls=0.5,diis   235   -691.3175878779 -1.74D-07  4.94D-07  2.07D-07   140.1
                                                     2.67D-06  1.46D-07
 Grid integrated density:      54.999994385090
 Requested integration accuracy:   0.10E-06
 d= 0,ls=0.5,diis   236   -691.3175880278 -1.50D-07  1.78D-07  2.93D-07   140.7
                                                     2.66D-06  1.74D-07
 Grid integrated density:      54.999994384994
 Requested integration accuracy:   0.10E-06
 d= 0,ls=0.5,diis   237   -691.3175882034 -1.76D-07  1.05D-07  3.25D-07   141.2
                                                     2.69D-06  1.85D-07
 Grid integrated density:      54.999994384888
 Requested integration accuracy:   0.10E-06
 d= 0,ls=0.5,diis   238   -691.3175883762 -1.73D-07  7.67D-08  3.69D-07   141.7
                                                     2.72D-06  2.01D-07
 Grid integrated density:      54.999994384764
 Requested integration accuracy:   0.10E-06
 d= 0,ls=0.5,diis   239   -691.3175885406 -1.64D-07  4.71D-07  4.35D-07   142.3
                                                     2.78D-06  2.23D-07
 Grid integrated density:      54.999994384618
 Requested integration accuracy:   0.10E-06
 d= 0,ls=0.5,diis   240   -691.3175886814 -1.41D-07  2.97D-07  5.56D-07   142.8
                                                     2.77D-06  2.64D-07
 Grid integrated density:      54.999994384510
 Requested integration accuracy:   0.10E-06
 d= 0,ls=0.5,diis   241   -691.3175888659 -1.85D-07  1.52D-06  5.86D-07   143.3
                                                     2.80D-06  2.74D-07
 Grid integrated density:      54.999994384491
 Requested integration accuracy:   0.10E-06
 d= 0,ls=0.5,diis   242   -691.3175891228 -2.57D-07  7.40D-07  4.70D-07   143.9
                                                     2.74D-06  2.35D-07
 Grid integrated density:      54.999994384408
 Requested integration accuracy:   0.10E-06
 d= 0,ls=0.5,diis   243   -691.3175893314 -2.09D-07  3.13D-07  4.62D-07   144.4
                                                     2.75D-06  2.32D-07
 Grid integrated density:      54.999994384291
 Requested integration accuracy:   0.10E-06
 d= 0,ls=0.5,diis   244   -691.3175895168 -1.85D-07  8.29D-07  5.02D-07   144.9
                                                     2.76D-06  2.46D-07
 Grid integrated density:      54.999994384200
 Requested integration accuracy:   0.10E-06
 d= 0,ls=0.5,diis   245   -691.3175897332 -2.16D-07  2.34D-07  4.76D-07   145.5
                                                     2.77D-06  2.38D-07
 Grid integrated density:      54.999994384062
 Requested integration accuracy:   0.10E-06
 d= 0,ls=0.5,diis   246   -691.3175899139 -1.81D-07  6.10D-07  5.28D-07   146.0
                                                     2.78D-06  2.56D-07
 Grid integrated density:      54.999994383930
 Requested integration accuracy:   0.10E-06
 d= 0,ls=0.5,diis   247   -691.3175901219 -2.08D-07  1.58D-07  5.22D-07   146.5
                                                     2.80D-06  2.54D-07
 Grid integrated density:      54.999994383780
 Requested integration accuracy:   0.10E-06
 d= 0,ls=0.5,diis   248   -691.3175902923 -1.70D-07  6.47D-07  6.00D-07   147.1
                                                     2.80D-06  2.80D-07
 Grid integrated density:      54.999994383705
 Requested integration accuracy:   0.10E-06
 d= 0,ls=0.5,diis   249   -691.3175905034 -2.11D-07  3.27D-06  5.90D-07   147.6
                                                     3.10D-06  2.77D-07
 Grid integrated density:      54.999994383675
 Requested integration accuracy:   0.10E-06
 d= 0,ls=0.5,diis   250   -691.3175908525 -3.49D-07  1.64D-06  2.91D-07   148.1
                                                     2.76D-06  1.79D-07
 Grid integrated density:      54.999994383673
 Requested integration accuracy:   0.10E-06
 d= 0,ls=0.5,diis   251   -691.3175910914 -2.39D-07  4.59D-07  2.21D-07   148.7
                                                     2.70D-06  1.56D-07
 Grid integrated density:      54.999994383537
 Requested integration accuracy:   0.10E-06
 d= 0,ls=0.5,diis   252   -691.3175912648 -1.73D-07  3.68D-07  2.84D-07   149.2
                                                     2.75D-06  1.79D-07
 Grid integrated density:      54.999994383357
 Requested integration accuracy:   0.10E-06
 d= 0,ls=0.5,diis   253   -691.3175914307 -1.66D-07  5.00D-07  3.62D-07   149.7
                                                     2.74D-06  2.09D-07
 Grid integrated density:      54.999994383208
 Requested integration accuracy:   0.10E-06
 d= 0,ls=0.5,diis   254   -691.3175916301 -1.99D-07  8.70D-07  3.68D-07   150.3
                                                     2.82D-06  2.13D-07
 Grid integrated density:      54.999994383044
 Requested integration accuracy:   0.10E-06
 d= 0,ls=0.5,diis   255   -691.3175917601 -1.30D-07  3.37D-07  5.28D-07   150.8
                                                     2.83D-06  2.64D-07
 Grid integrated density:      54.999994382864
 Requested integration accuracy:   0.10E-06
 d= 0,ls=0.5,diis   256   -691.3175919489 -1.89D-07  1.08D-06  5.65D-07   151.3
                                                     2.84D-06  2.79D-07
 Grid integrated density:      54.999994382695
 Requested integration accuracy:   0.10E-06
 d= 0,ls=0.5,diis   257   -691.3175921904 -2.42D-07  7.65D-07  4.98D-07   151.9
                                                     2.80D-06  2.56D-07
 Grid integrated density:      54.999994382581
 Requested integration accuracy:   0.10E-06
 d= 0,ls=0.5,diis   258   -691.3175924073 -2.17D-07  1.51D-06  4.86D-07   152.4
                                                     2.83D-06  2.53D-07
 Grid integrated density:      54.999994382482
 Requested integration accuracy:   0.10E-06
 d= 0,ls=0.5,diis   259   -691.3175926669 -2.60D-07  8.71D-07  3.83D-07   152.9
                                                     2.78D-06  2.20D-07
 Grid integrated density:      54.999994382335
 Requested integration accuracy:   0.10E-06
 d= 0,ls=0.5,diis   260   -691.3175928916 -2.25D-07  1.20D-06  3.59D-07   153.5
                                                     2.78D-06  2.09D-07
 Grid integrated density:      54.999994382247
 Requested integration accuracy:   0.10E-06
 d= 0,ls=0.5,diis   261   -691.3175931313 -2.40D-07  1.20D-06  2.99D-07   154.0
                                                     2.76D-06  1.89D-07
 Grid integrated density:      54.999994382187
 Requested integration accuracy:   0.10E-06
 d= 0,ls=0.5,diis   262   -691.3175933661 -2.35D-07  3.19D-06  2.47D-07   154.5
                                                     3.00D-06  1.72D-07
 Grid integrated density:      54.999994382187
 Requested integration accuracy:   0.10E-06
 d= 0,ls=0.5,diis   263   -691.3175936545 -2.88D-07  1.24D-06  7.62D-08   155.1
                                                     2.68D-06  1.17D-07
 Grid integrated density:      54.999994382120
 Requested integration accuracy:   0.10E-06
 d= 0,ls=0.5,diis   264   -691.3175938700 -2.16D-07  1.57D-06  5.43D-08   155.6
                                                     2.66D-06  1.08D-07
 Grid integrated density:      54.999994382116
[...]
    45     -1.159572   6 C  s                93      0.979969  11 H  s         
    78      0.815129  10 O  s                73      0.760462   9 C  px        
 
 Vector  106  Occ=0.000000D+00  E= 8.549392D+00
              MO Center=  1.5D-01, -5.3D-01,  1.4D+00, r^2= 4.6D-01
   Bfn.  Coefficient  Atom+Function         Bfn.  Coefficient  Atom+Function  
  ----- ------------  ---------------      ----- ------------  ---------------
    98      3.236753  12 Cl s                97     -2.693202  12 Cl s         
    99     -2.105553  12 Cl s               100      1.526598  12 Cl s         
    66     -0.604885   9 C  s                54     -0.473132   6 C  pz        
    96      0.459241  12 Cl s                81      0.406245  10 O  s         
    74     -0.365577   9 C  py              115     -0.359501  12 Cl pz        
 
 Vector  107  Occ=0.000000D+00  E= 1.109299D+01
              MO Center=  1.0D+00, -3.7D-01, -6.8D-01, r^2= 6.9D-01
   Bfn.  Coefficient  Atom+Function         Bfn.  Coefficient  Atom+Function  
  ----- ------------  ---------------      ----- ------------  ---------------
    64     -3.210745   9 C  s                63      3.118861   9 C  s         
    65      2.792879   9 C  s                66     -1.781119   9 C  s         
    62     -1.632743   9 C  s                43     -0.978533   6 C  s         
    42      0.948383   6 C  s                44      0.817711   6 C  s         
    41     -0.492858   6 C  s                45     -0.451913   6 C  s         
 
 Vector  108  Occ=0.000000D+00  E= 1.124792D+01
              MO Center=  3.6D-02,  2.9D-01, -3.8D-01, r^2= 7.7D-01
   Bfn.  Coefficient  Atom+Function         Bfn.  Coefficient  Atom+Function  
  ----- ------------  ---------------      ----- ------------  ---------------
    43     -3.188301   6 C  s                42      2.995498   6 C  s         
    44      2.988774   6 C  s                45     -2.915432   6 C  s         
    66      1.650075   9 C  s                41     -1.557645   6 C  s         
    65     -1.126115   9 C  s                64      1.079612   9 C  s         
    63     -0.992414   9 C  s                18      0.985382   2 C  s         
 
 Vector  109  Occ=0.000000D+00  E= 1.130262D+01
              MO Center= -2.2D+00,  7.6D-01, -3.4D-01, r^2= 9.0D-01
   Bfn.  Coefficient  Atom+Function         Bfn.  Coefficient  Atom+Function  
  ----- ------------  ---------------      ----- ------------  ---------------
     4     -3.050594   1 C  s                 3      2.953936   1 C  s         
     5      2.668614   1 C  s                 6     -1.896886   1 C  s         
     2     -1.543893   1 C  s                19     -1.351430   2 C  s         
    18      1.307825   2 C  s                20      1.171298   2 C  s         
    21     -0.902125   2 C  s                45      0.737335   6 C  s         
 
 Vector  110  Occ=0.000000D+00  E= 1.131710D+01
              MO Center= -1.4D+00,  3.5D-01, -7.8D-01, r^2= 8.8D-01
   Bfn.  Coefficient  Atom+Function         Bfn.  Coefficient  Atom+Function  
  ----- ------------  ---------------      ----- ------------  ---------------
    19     -3.045804   2 C  s                18      2.855635   2 C  s         
    20      2.865738   2 C  s                21     -2.831514   2 C  s         
     6      1.550829   1 C  s                 4      1.516208   1 C  s         
    17     -1.488592   2 C  s                 5     -1.453250   1 C  s         
     3     -1.413510   1 C  s                45      1.395803   6 C  s         
 
 Vector  111  Occ=0.000000D+00  E= 2.144760D+01
              MO Center=  2.4D+00, -8.8D-02, -8.0D-01, r^2= 2.1D-01
   Bfn.  Coefficient  Atom+Function         Bfn.  Coefficient  Atom+Function  
  ----- ------------  ---------------      ----- ------------  ---------------
    78      3.326501  10 O  s                79     -3.236284  10 O  s         
    80      2.612941  10 O  s                77     -1.742491  10 O  s         
    81     -1.704393  10 O  s                66      0.916639   9 C  s         
    74      0.735989   9 C  py               52     -0.545677   6 C  px        
    45     -0.445601   6 C  s                93      0.390261  11 H  s         
 
 Vector  112  Occ=0.000000D+00  E= 4.028704D+01
              MO Center=  1.5D-01, -5.5D-01,  1.4D+00, r^2= 7.4D-02
   Bfn.  Coefficient  Atom+Function         Bfn.  Coefficient  Atom+Function  
  ----- ------------  ---------------      ----- ------------  ---------------
   102      2.311822  12 Cl py              105     -2.065024  12 Cl py        
   101      1.024411  12 Cl px              104     -0.914925  12 Cl px        
   103      0.814027  12 Cl pz              106     -0.727276  12 Cl pz        
   108     -0.699747  12 Cl py              111      0.315799  12 Cl py        
   107     -0.310565  12 Cl px              109     -0.245655  12 Cl pz        
 
 Vector  113  Occ=0.000000D+00  E= 4.029928D+01
              MO Center=  1.5D-01, -5.5D-01,  1.4D+00, r^2= 7.5D-02
   Bfn.  Coefficient  Atom+Function         Bfn.  Coefficient  Atom+Function  
  ----- ------------  ---------------      ----- ------------  ---------------
   101      2.091055  12 Cl px              104     -1.867081  12 Cl px        
   103     -1.599484  12 Cl pz              106      1.427895  12 Cl pz        
   107     -0.636930  12 Cl px              109      0.488582  12 Cl pz        
   102     -0.362983  12 Cl py              105      0.324407  12 Cl py        
   110      0.294864  12 Cl px              112     -0.226457  12 Cl pz        
 
 Vector  114  Occ=0.000000D+00  E= 4.030561D+01
              MO Center=  1.5D-01, -5.5D-01,  1.4D+00, r^2= 7.4D-02
   Bfn.  Coefficient  Atom+Function         Bfn.  Coefficient  Atom+Function  
  ----- ------------  ---------------      ----- ------------  ---------------
   103      1.960835  12 Cl pz              106     -1.749878  12 Cl pz        
   101      1.280573  12 Cl px              102     -1.258003  12 Cl py        
   104     -1.143251  12 Cl px              105      1.122813  12 Cl py        
   109     -0.602616  12 Cl pz              107     -0.391022  12 Cl px        
   108      0.385753  12 Cl py              112      0.287638  12 Cl pz        
 
 Vector  115  Occ=0.000000D+00  E= 6.202737D+01
              MO Center=  1.0D+00, -3.6D-01, -6.7D-01, r^2= 4.1D-01
   Bfn.  Coefficient  Atom+Function         Bfn.  Coefficient  Atom+Function  
  ----- ------------  ---------------      ----- ------------  ---------------
    62      2.775183   9 C  s                63     -2.114197   9 C  s         
    61     -1.641252   9 C  s                64      1.412167   9 C  s         
    65     -1.161699   9 C  s                41      0.921091   6 C  s         
    66      0.732410   9 C  s                42     -0.704714   6 C  s         
    40     -0.544638   6 C  s                43      0.471862   6 C  s         
 
 Vector  116  Occ=0.000000D+00  E= 6.218445D+01
              MO Center=  1.0D-02,  2.8D-01, -4.1D-01, r^2= 5.6D-01
   Bfn.  Coefficient  Atom+Function         Bfn.  Coefficient  Atom+Function  
  ----- ------------  ---------------      ----- ------------  ---------------
    41      2.599082   6 C  s                42     -1.994910   6 C  s         
    40     -1.532268   6 C  s                43      1.378244   6 C  s         
    44     -1.222167   6 C  s                45      1.185040   6 C  s         
    17      1.018715   2 C  s                62     -0.971077   9 C  s         
    18     -0.779410   2 C  s                63      0.743301   9 C  s         
 
 Vector  117  Occ=0.000000D+00  E= 6.224320D+01
              MO Center= -2.1D+00,  7.3D-01, -3.7D-01, r^2= 7.1D-01
   Bfn.  Coefficient  Atom+Function         Bfn.  Coefficient  Atom+Function  
  ----- ------------  ---------------      ----- ------------  ---------------
     2      2.559130   1 C  s                 3     -1.953926   1 C  s         
     1     -1.512021   1 C  s                 4      1.309767   1 C  s         
    17      1.309616   2 C  s                 5     -1.082956   1 C  s         
    18     -1.004167   2 C  s                16     -0.772615   2 C  s         
     6      0.756331   1 C  s                19      0.678002   2 C  s         
 
 Vector  118  Occ=0.000000D+00  E= 6.226762D+01
              MO Center= -1.4D+00,  3.9D-01, -7.3D-01, r^2= 7.4D-01
   Bfn.  Coefficient  Atom+Function         Bfn.  Coefficient  Atom+Function  
  ----- ------------  ---------------      ----- ------------  ---------------
    17      2.429787   2 C  s                18     -1.861392   2 C  s         
     2     -1.445274   1 C  s                16     -1.433354   2 C  s         
    19      1.292365   2 C  s                20     -1.159551   2 C  s         
    21      1.163242   2 C  s                 3      1.103271   1 C  s         
     1      0.853740   1 C  s                41     -0.844347   6 C  s         
 
 Vector  119  Occ=0.000000D+00  E= 1.173831D+02
              MO Center=  2.4D+00, -8.7D-02, -8.0D-01, r^2= 4.7D-02
   Bfn.  Coefficient  Atom+Function         Bfn.  Coefficient  Atom+Function  
  ----- ------------  ---------------      ----- ------------  ---------------
    77      2.970601  10 O  s                78     -2.276149  10 O  s         
    76     -1.756199  10 O  s                79      1.442140  10 O  s         
    80     -1.098399  10 O  s                81      0.718096  10 O  s         
    66     -0.392656   9 C  s                74     -0.313247   9 C  py        
    52      0.233353   6 C  px               45      0.190841   6 C  s         
 
 Vector  120  Occ=0.000000D+00  E= 1.225730D+02
              MO Center=  1.5D-01, -5.5D-01,  1.4D+00, r^2= 3.9D-02
   Bfn.  Coefficient  Atom+Function         Bfn.  Coefficient  Atom+Function  
  ----- ------------  ---------------      ----- ------------  ---------------
    96      2.263863  12 Cl s                97     -1.718599  12 Cl s         
    95     -1.608528  12 Cl s                98      1.159447  12 Cl s         
    99     -0.531007  12 Cl s               100      0.374884  12 Cl s         
    66     -0.143587   9 C  s                54     -0.112921   6 C  pz        
    81      0.099114  10 O  s                94     -0.099118  12 Cl s         
 
 Vector  121  Occ=0.000000D+00  E= 8.991203D+02
              MO Center=  1.5D-01, -5.5D-01,  1.4D+00, r^2= 6.9D-03
   Bfn.  Coefficient  Atom+Function         Bfn.  Coefficient  Atom+Function  
  ----- ------------  ---------------      ----- ------------  ---------------
    95      2.342545  12 Cl s                94     -1.742246  12 Cl s         
    96     -1.316738  12 Cl s                97      0.700881  12 Cl s         
    98     -0.452255  12 Cl s                99      0.206269  12 Cl s         
   100     -0.145918  12 Cl s                66      0.054457   9 C  s         
    54      0.043996   6 C  pz               81     -0.035336  10 O  s         
 

   alpha - beta orbital overlaps 
   ----------------------------- 


   alpha      1      2      3      4      5      6      7      8      9     10
    beta      1      2      3      4      5      6      7      8      9     10
 overlap   1.000  1.000  1.000  1.000  1.000  1.000  1.000  0.954  0.951  0.996


   alpha     11     12     13     14     15     16     17     18     19     20
    beta     11     12     13     14     15     16     17     18     19     20
 overlap   1.000  0.998  0.998  0.998  0.998  0.999  1.000  0.999  0.997  0.997


   alpha     21     22     23     24     25     26     27     28     29     30
    beta     21     22     23     25     24     28     26     27     29     30
 overlap   0.985  0.962  0.970  0.848  0.958  0.915  0.990  0.947  0.999  1.000


   alpha     31     32     33     34     35     36     37     38     39     40
    beta     31     32     33     34     35     36     37     38     39     40
 overlap   1.000  1.000  0.995  0.995  0.998  0.987  0.987  0.990  0.986  0.991


   alpha     41     42     43     44     45     46     47     48     49     50
    beta     41     42     43     44     45     46     47     48     49     50
 overlap   0.992  0.997  0.999  0.998  0.989  0.988  0.999  0.992  0.993  0.997


   alpha     51     52     53     54     55     56     57     58     59     60
    beta     51     52     53     54     55     56     57     58     59     60
 overlap   0.998  0.991  0.991  0.996  0.997  0.992  0.989  0.989  0.974  0.981


   alpha     61     62     63     64     65     66     67     68     69     70
    beta     61     62     63     64     65     66     67     68     69     70
 overlap   0.951  0.940  0.946  0.997  0.974  0.976  0.992  0.997  1.000  1.000


   alpha     71     72     73     74     75     76     77     78     79     80
    beta     71     72     73     74     75     76     77     78     79     80
 overlap   0.973  0.973  1.000  1.000  0.999  0.999  0.999  0.999  0.998  0.998


   alpha     81     82     83     84     85     86     87     88     89     90
    beta     81     82     83     84     85     86     87     88     89     90
 overlap   1.000  0.996  0.995  1.000  0.999  1.000  1.000  0.995  0.996  0.994


   alpha     91     92     93     94     95     96     97     98     99    100
    beta     91     92     93     94     95     96     97     98     99    100
 overlap   0.966  0.960  0.983  0.997  0.972  0.972  0.998  1.000  0.998  0.998


   alpha    101    102    103    104    105    106    107    108    109    110
    beta    101    102    103    104    105    106    107    108    109    110
 overlap   1.000  0.999  1.000  1.000  1.000  1.000  1.000  1.000  0.998  0.998


   alpha    111    112    113    114    115    116    117    118    119    120
    beta    111    112    113    114    115    116    117    118    119    120
 overlap   1.000  0.979  0.979  0.998  1.000  1.000  1.000  1.000  1.000  1.000


   alpha    121
    beta    121
 overlap   1.000

     --------------------------
     Expectation value of S2:  
     --------------------------
      <S2> =      0.7514 (Exact =     0.7500)
 

 center of mass
 --------------
 x =   0.12339744 y =  -0.07554568 z =   0.10950086

 moments of inertia (a.u.)
 ------------------
         514.470949905235         171.242411485909          38.203993971862
         171.242411485909        1236.269816223506         100.482279432188
          38.203993971862         100.482279432188         976.594792468227
 
     Multipole analysis of the density
     ---------------------------------
 
     L   x y z        total         alpha         beta         nuclear
     -   - - -        -----         -----         ----         -------
     0   0 0 0      2.000000    -28.000000    -27.000000     57.000000
 
     1   1 0 0     -0.358556      0.699598     -1.058155      0.000000
     1   0 1 0      1.038073      0.392600      0.645472      0.000000
     1   0 0 1     -0.973291     -0.902977     -0.070314      0.000000
 
     2   2 0 0     -5.911061   -251.889971   -241.514146    487.493056
     2   1 1 0     -0.882514     49.735665     46.885969    -97.504149
     2   1 0 1      0.632014      6.832593      8.341165    -14.541744
     2   0 2 0    -21.230579    -53.881213    -49.965480     82.616114
     2   0 1 1     -1.465958     24.447923     23.043661    -48.957542
     2   0 0 2    -21.980483   -115.527909   -110.822304    204.369731
 

 Task  times  cpu:      590.6s     wall:      603.0s
 
 
                                NWChem Input Module
                                -------------------
 
 
 Summary of allocated global arrays
-----------------------------------
  No active global arrays



                         GA Statistics for process    0
                         ------------------------------

       create   destroy   get      put      acc     scatter   gather  read&inc
calls: 2.09e+04 2.09e+04 4.00e+06 1.15e+05 2.92e+06    0        0     2.59e+04 
number of processes/call 1.08e+01 8.65e+01 9.10e+00 0.00e+00 0.00e+00
bytes total:             7.82e+09 8.66e+08 4.21e+09 0.00e+00 0.00e+00 2.07e+05
bytes remote:            6.75e+09 5.21e+08 3.77e+09 0.00e+00 0.00e+00 0.00e+00
Max memory consumed for GA by this process: 808264 bytes
 
 
 
                                     CITATION
                                     --------
                Please cite the following reference when publishing
                           results obtained with NWChem:
 
          E. Apr, E. J. Bylaska, W. A. de Jong, N. Govind, K. Kowalski,
       T. P. Straatsma, M. Valiev, H. J. J. van Dam, Y. Alexeev, J. Anchell,
       V. Anisimov, F. W. Aquino, R. Atta-Fynn, J. Autschbach, N. P. Bauman,
     J. C. Becca, D. E. Bernholdt, K. Bhaskaran-Nair, S. Bogatko, P. Borowski,
        J. Boschen, J. Brabec, A. Bruner, E. Caut, Y. Chen, G. N. Chuev,
      C. J. Cramer, J. Daily, M. J. O. Deegan, T. H. Dunning Jr., M. Dupuis,
   K. G. Dyall, G. I. Fann, S. A. Fischer, A. Fonari, H. Frchtl, L. Gagliardi,
      J. Garza, N. Gawande, S. Ghosh, K. Glaesemann, A. W. Gtz, J. Hammond,
       V. Helms, E. D. Hermes, K. Hirao, S. Hirata, M. Jacquelin, L. Jensen,
   B. G. Johnson, H. Jnsson, R. A. Kendall, M. Klemm, R. Kobayashi, V. Konkov,
      S. Krishnamoorthy, M. Krishnan, Z. Lin, R. D. Lins, R. J. Littlefield,
      A. J. Logsdail, K. Lopata, W. Ma, A. V. Marenich, J. Martin del Campo,
   D. Mejia-Rodriguez, J. E. Moore, J. M. Mullin, T. Nakajima, D. R. Nascimento,
    J. A. Nichols, P. J. Nichols, J. Nieplocha, A. Otero-de-la-Roza, B. Palmer,
    A. Panyala, T. Pirojsirikul, B. Peng, R. Peverati, J. Pittner, L. Pollack,
   R. M. Richard, P. Sadayappan, G. C. Schatz, W. A. Shelton, D. W. Silverstein,
   D. M. A. Smith, T. A. Soares, D. Song, M. Swart, H. L. Taylor, G. S. Thomas,
            V. Tipparaju, D. G. Truhlar, K. Tsemekhman, T. Van Voorhis,
     . Vzquez-Mayagoitia, P. Verma, O. Villa, A. Vishnu, K. D. Vogiatzis,
        D. Wang, J. H. Weare, M. J. Williamson, T. L. Windus, K. Woliski,
        A. T. Wong, Q. Wu, C. Yang, Q. Yu, M. Zacharias, Z. Zhang, Y. Zhao,
                                and R. J. Harrison
                        "NWChem: Past, present, and future
                         J. Chem. Phys. 152, 184102 (2020)
                               doi:10.1063/5.0004997
 
                                      AUTHORS
                                      -------
     E. Apra, E. J. Bylaska, N. Govind, K. Kowalski, M. Valiev, W. A. de Jong,
      T. P. Straatsma, H. J. J. van Dam, D. Wang, T. L. Windus, N. P. Bauman,
       A. Panyala, J. Hammond, J. Autschbach, K. Bhaskaran-Nair, J. Brabec,
    K. Lopata, S. A. Fischer, S. Krishnamoorthy, M. Jacquelin, W. Ma, M. Klemm,
       O. Villa, Y. Chen, V. Anisimov, F. Aquino, S. Hirata, M. T. Hackler,
           Eric Hermes, L. Jensen, J. E. Moore, J. C. Becca, V. Konjkov,
            D. Mejia-Rodriguez, T. Risthaus, M. Malagoli, A. Marenich,
   A. Otero-de-la-Roza, J. Mullin, P. Nichols, R. Peverati, J. Pittner, Y. Zhao,
        P.-D. Fan, A. Fonari, M. J. Williamson, R. J. Harrison, J. R. Rehr,
      M. Dupuis, D. Silverstein, D. M. A. Smith, J. Nieplocha, V. Tipparaju,
      M. Krishnan, B. E. Van Kuiken, A. Vazquez-Mayagoitia, M. Swart, Q. Wu,
   T. Van Voorhis, A. A. Auer, M. Nooijen, L. D. Crosby, E. Brown, G. Cisneros,
     G. I. Fann, H. Fruchtl, J. Garza, K. Hirao, R. A. Kendall, J. A. Nichols,
       K. Tsemekhman, K. Wolinski, J. Anchell, D. E. Bernholdt, P. Borowski,
       T. Clark, D. Clerc, H. Dachsel, M. J. O. Deegan, K. Dyall, D. Elwood,
      E. Glendening, M. Gutowski, A. C. Hess, J. Jaffe, B. G. Johnson, J. Ju,
        R. Kobayashi, R. Kutteh, Z. Lin, R. Littlefield, X. Long, B. Meng,
      T. Nakajima, S. Niu, L. Pollack, M. Rosing, K. Glaesemann, G. Sandrone,
      M. Stave, H. Taylor, G. Thomas, J. H. van Lenthe, A. T. Wong, Z. Zhang.

 Total times  cpu:      590.6s     wall:      603.1s
