 
             Northwest Computational Chemistry Package (NWChem) 7.0.0
             --------------------------------------------------------
 
 
                    Environmental Molecular Sciences Laboratory
                       Pacific Northwest National Laboratory
                                Richland, WA 99352
 
                              Copyright (c) 1994-2020
                       Pacific Northwest National Laboratory
                            Battelle Memorial Institute
 
             NWChem is an open-source computational chemistry package
                        distributed under the terms of the
                      Educational Community License (ECL) 2.0
             A copy of the license is included with this distribution
                              in the LICENSE.TXT file
 
                                  ACKNOWLEDGMENT
                                  --------------

            This software and its documentation were developed at the
            EMSL at Pacific Northwest National Laboratory, a multiprogram
            national laboratory, operated for the U.S. Department of Energy
            by Battelle under Contract Number DE-AC05-76RL01830. Support
            for this work was provided by the Department of Energy Office
            of Biological and Environmental Research, Office of Basic
            Energy Sciences, and the Office of Advanced Scientific Computing.


                                NWChem Input Module
                                -------------------
 
 
 Summary of "ao basis" -> "" (spherical)
 ------------------------------------------------------------------------------
       Tag                 Description            Shells   Functions and Types
 ---------------- ------------------------------  ------  ---------------------
 *                        ahlrichs_vtz                on all atoms 



 Scaling coordinates for geometry "geometry" by  1.889725989
 (inverse scale =  0.529177249)

 
 
                             Geometry "geometry" -> ""
                             -------------------------
 
 Output coordinates in angstroms (scale by  1.889725989 to convert to a.u.)
 
  No.       Tag          Charge          X              Y              Z
 ---- ---------------- ---------- -------------- -------------- --------------
    1 C                    6.0000     0.28965743     0.05978961     0.57253711
    2 O                    8.0000    -0.20171320    -0.08879637    -0.59455055
    3 H                    1.0000     1.34803382    -0.20291295     0.66639779
    4 H                    1.0000    -0.30702410     0.42478693     1.42032677
    5 H                    1.0000    -1.16524874     0.12975938    -0.76554278
 
      Atomic Mass 
      ----------- 
 
      C                 12.000000
      O                 15.994910
      H                  1.007825
 

 Effective nuclear repulsion energy (a.u.)      36.3681889371

            Nuclear Dipole moment (a.u.) 
            ----------------------------
        X                 Y               Z
 ---------------- ---------------- ----------------
     0.0000000000    -0.0000000000     0.0000000000
 
 
            XYZ format geometry
            -------------------
     5
 geometry
 C                     0.28965743     0.05978961     0.57253711
 O                    -0.20171320    -0.08879637    -0.59455055
 H                     1.34803382    -0.20291295     0.66639779
 H                    -0.30702410     0.42478693     1.42032677
 H                    -1.16524874     0.12975938    -0.76554278
 
 ==============================================================================
                                internuclear distances
 ------------------------------------------------------------------------------
       center one      |      center two      | atomic units |  angstroms
 ------------------------------------------------------------------------------
    2 O                |   1 C                |     2.40939  |     1.27500
    3 H                |   1 C                |     2.06835  |     1.09452
    4 H                |   1 C                |     2.07698  |     1.09909
    5 H                |   2 O                |     1.89483  |     1.00270
 ------------------------------------------------------------------------------
                         number of included internuclear distances:          4
 ==============================================================================



 ==============================================================================
                                 internuclear angles
 ------------------------------------------------------------------------------
        center 1       |       center 2       |       center 3       |  degrees
 ------------------------------------------------------------------------------
    2 O                |   1 C                |   3 H                |   115.04
    2 O                |   1 C                |   4 H                |   122.38
    3 H                |   1 C                |   4 H                |   122.58
    1 C                |   2 O                |   5 H                |   120.07
 ------------------------------------------------------------------------------
                            number of included internuclear angles:          4
 ==============================================================================



                              Aldehyde and Ketone set
                              -----------------------
 
                                 NWChem DFT Module
                                 -----------------
 
 
                              Aldehyde and Ketone set
 
 
                      Basis "ao basis" -> "ao basis" (spherical)
                      -----
  C (Carbon)
  ----------
            Exponent  Coefficients 
       -------------- ---------------------------------------------------------
  1 S  8.50603840E+03  0.000534
  1 S  1.27573290E+03  0.004125
  1 S  2.90311870E+02  0.021171
  1 S  8.20562000E+01  0.082418
  1 S  2.64796410E+01  0.240129
 
  2 S  9.24145850E+00  1.000000
 
  3 S  3.36435300E+00  1.000000
 
  4 S  8.71741640E-01  1.000000
 
  5 S  3.63523520E-01  1.000000
 
  6 S  1.28731350E-01  1.000000
 
  7 P  3.47094960E+01  0.005330
  7 P  7.95908830E+00  0.035866
  7 P  2.37869720E+00  0.142003
  7 P  8.15400650E-01  0.342031
 
  8 P  2.89537850E-01  1.000000
 
  9 P  1.00847540E-01  1.000000
 
  O (Oxygen)
  ----------
            Exponent  Coefficients 
       -------------- ---------------------------------------------------------
  1 S  1.59026475E+04  0.000515
  1 S  2.38495378E+03  0.003982
  1 S  5.42719572E+02  0.020477
  1 S  1.53404079E+02  0.080262
  1 S  4.95457161E+01  0.237668
 
  2 S  1.73396499E+01  1.000000
 
  3 S  6.33033553E+00  1.000000
 
  4 S  1.69958822E+00  1.000000
 
  5 S  6.89544913E-01  1.000000
 
  6 S  2.39360282E-01  1.000000
 
  7 P  6.32705240E+01  0.006071
  7 P  1.46233123E+01  0.041948
  7 P  4.44895180E+00  0.161569
  7 P  1.52815132E+00  0.356828
 
  8 P  5.29973159E-01  1.000000
 
  9 P  1.75094460E-01  1.000000
 
  H (Hydrogen)
  ------------
            Exponent  Coefficients 
       -------------- ---------------------------------------------------------
  1 S  3.40613410E+01  0.006025
  1 S  5.12357460E+00  0.045021
  1 S  1.16466260E+00  0.201897
 
  2 S  3.27230410E-01  1.000000
 
  3 S  1.03072410E-01  1.000000
 


 Summary of "ao basis" -> "ao basis" (spherical)
 ------------------------------------------------------------------------------
       Tag                 Description            Shells   Functions and Types
 ---------------- ------------------------------  ------  ---------------------
 C                        ahlrichs vtz               9       15   6s3p
 O                        ahlrichs vtz               9       15   6s3p
 H                        ahlrichs vtz               3        3   3s




 Summary of "ao basis" -> "ao basis" (spherical)
 ------------------------------------------------------------------------------
       Tag                 Description            Shells   Functions and Types
 ---------------- ------------------------------  ------  ---------------------
 C                        ahlrichs vtz               9       15   6s3p
 O                        ahlrichs vtz               9       15   6s3p
 H                        ahlrichs vtz               3        3   3s


  Caching 1-el integrals 
 
            General Information
            -------------------
          SCF calculation type: DFT
          Wavefunction type:  spin polarized.
          No. of atoms     :     5
          No. of electrons :    15
           Alpha electrons :     8
            Beta electrons :     7
          Charge           :     2
          Spin multiplicity:     2
          Use of symmetry is: off; symmetry adaption is: off
          Maximum number of iterations: ***
          This is a Direct SCF calculation.
          AO basis - number of functions:    39
                     number of shells:    27
          Convergence on energy requested:  1.00D-08
          Convergence on density requested:  1.00D-07
          Convergence on gradient requested:  1.00D-06
 
              XC Information
              --------------
                        PBE96 Method XC Functional
          PerdewBurkeErnzerhof Exchange Functional  1.000          
            Perdew 1991 LDA Correlation Functional  1.000 local    
           PerdewBurkeErnz. Correlation Functional  1.000 non-local
 
             Grid Information
             ----------------
          Grid used for XC integration:  fine      
          Radial quadrature: Mura-Knowles        
          Angular quadrature: Lebedev. 
          Tag              B.-S. Rad. Rad. Pts. Rad. Cut. Ang. Pts.
          ---              ---------- --------- --------- ---------
          C                   0.70       70           8.0       590
          O                   0.60       70           8.0       590
          H                   0.35       60          10.0       590
          Grid pruning is: on 
          Number of quadrature shells:   320
          Spatial weights used:  Erf1
 
          Convergence Information
          -----------------------
          Convergence aids based upon iterative change in 
          total energy or number of iterations. 
          Levelshifting, if invoked, occurs when the 
          HOMO/LUMO gap drops below (HL_TOL):  1.00D-02
          DIIS, if invoked, will attempt to extrapolate 
          using up to (NFOCK): 10 stored Fock matrices.

                    Damping( 0%)  Levelshifting(0.5)       DIIS
                  --------------- ------------------- ---------------
          dE  on:    start            ASAP                start   
          dE off:    2 iters        *** iters           *** iters 

 
      Screening Tolerance Information
      -------------------------------
          Density screening/tol_rho:  1.00D-12
          AO Gaussian exp screening on grid/accAOfunc:  18
          CD Gaussian exp screening on grid/accCDfunc:  20
          XC Gaussian exp screening on grid/accXCfunc:  20
          Schwarz screening/accCoul:  1.00D-12

      Dispersion Parameters
      ---------------------

           DFT-D3BJ Model   
          s6 scale factor  :        1.000000000000
          s8 scale factor  :        0.787500000000
          a1 parameter     :        0.428900000000
          a2 parameter     :        4.440700000000
              vdW contrib  :       -0.001481241165


 Forcing the number of linearly dependent vectors to be  0
 
      Superposition of Atomic Density Guess
      -------------------------------------
 
 Sum of atomic energies:        -113.95448424
   Time after variat. SCF:      0.2
   Time prior to 1st pass:      0.2

 Grid_pts file          = ./10_CH2OH.gridpts.00
 Record size in doubles =  12289        No. of grid_pts per rec  =   3070
 Max. records in memory =      6        Max. recs in file   =  67550051

 Grid integrated density:      16.999999970411
 Requested integration accuracy:   0.10E-06

           Memory utilization after 1st SCF pass: 
           Heap Space remaining (MW):        0.00                  54
          Stack Space remaining (MW):      288.36           288357860

   convergence    iter        energy       DeltaE   RMS-Dens  Diis-err    time
 ---------------- ----- ----------------- --------- --------- ---------  ------
 d= 0,ls=0.0,diis     1   -115.2211091178 -1.52D+02  2.07D-02  6.31D+00     0.3
                                                     1.93D-02  4.82D+00
 d= 0,ls=0.0,diis     2   -113.8299700979  1.39D+00  7.29D-03  5.80D-02     0.3
                                                     6.90D-03  5.67D-02
 d= 0,ls=0.0,diis     3   -113.8104950621  1.95D-02  3.83D-03  1.42D-01     0.4
                                                     5.84D-03  1.45D-01
 d= 0,ls=0.0,diis     4   -113.8281364509 -1.76D-02  2.40D-03  8.67D-02     0.4
                                                     3.24D-03  9.15D-02
 d= 0,ls=0.0,diis     5   -113.8645685783 -3.64D-02  3.61D-04  1.70D-03     0.5
                                                     5.62D-04  2.28D-03
 d= 0,ls=0.0,diis     6   -113.8654796722 -9.11D-04  8.48D-05  4.06D-05     0.6
                                                     7.31D-05  2.91D-05
 d= 0,ls=0.0,diis     7   -113.8654981247 -1.85D-05  1.67D-05  2.53D-07     0.6
                                                     2.59D-05  7.43D-07
 d= 0,ls=0.0,diis     8   -113.8654987065 -5.82D-07  1.02D-05  2.30D-07     0.7
                                                     8.33D-06  1.00D-07
 d= 0,ls=0.0,diis     9   -113.8654988483 -1.42D-07  1.72D-06  2.80D-09     0.7
                                                     2.16D-06  7.60D-09
 d= 0,ls=0.0,diis    10   -113.8654988538 -5.43D-09  3.33D-07  2.03D-10     0.8
                                                     6.74D-07  6.94D-10
 d= 0,ls=0.0,diis    11   -113.8654988541 -3.22D-10  1.92D-07  2.23D-10     0.8
                                                     1.34D-07  1.75D-10
 d= 0,ls=0.0,diis    12   -113.8654988542 -9.99D-11  1.28D-08  5.19D-13     0.9
                                                     7.49D-09  3.22D-13


         Total DFT energy =     -113.865498854181
      One electron energy =     -215.750585899043
           Coulomb energy =       79.713073073053
          Exchange energy =      -13.717211415921
       Correlation energy =       -0.477482308203
 Nuclear repulsion energy =       36.368188937098

    Dispersion correction =       -0.001481241165

 Numeric. integr. density =       14.999999955723

     Total iterative time =      0.7s


 
                    DFT Final Alpha Molecular Orbital Analysis
                    ------------------------------------------
 
 Vector    1  Occ=1.000000D+00  E=-1.960360D+01
              MO Center= -2.0D-01, -8.9D-02, -5.9D-01, r^2= 1.5D-02
   Bfn.  Coefficient  Atom+Function         Bfn.  Coefficient  Atom+Function  
  ----- ------------  ---------------      ----- ------------  ---------------
    17      0.424427  2 O  s                 18      0.366465  2 O  s          
    16      0.299474  2 O  s                 19      0.055167  2 O  s          
 
 Vector    2  Occ=1.000000D+00  E=-1.072137D+01
              MO Center=  2.9D-01,  6.0D-02,  5.7D-01, r^2= 2.8D-02
   Bfn.  Coefficient  Atom+Function         Bfn.  Coefficient  Atom+Function  
  ----- ------------  ---------------      ----- ------------  ---------------
     2      0.424105  1 C  s                  3      0.360030  1 C  s          
     1      0.308737  1 C  s                  4      0.056228  1 C  s          
 
 Vector    3  Occ=1.000000D+00  E=-1.756383D+00
              MO Center= -1.8D-01, -3.2D-02, -3.4D-01, r^2= 4.9D-01
   Bfn.  Coefficient  Atom+Function         Bfn.  Coefficient  Atom+Function  
  ----- ------------  ---------------      ----- ------------  ---------------
    20      0.564562  2 O  s                 21      0.232305  2 O  s          
     5      0.177753  1 C  s                 18     -0.148400  2 O  s          
    17     -0.123464  2 O  s                 19      0.117474  2 O  s          
     9     -0.113291  1 C  pz                24      0.099941  2 O  pz         
    27      0.096024  2 O  pz                 4      0.067880  1 C  s          
 
 Vector    4  Occ=1.000000D+00  E=-1.334834D+00
              MO Center= -1.2D-01, -1.5D-02, -2.0D-01, r^2= 1.2D+00
   Bfn.  Coefficient  Atom+Function         Bfn.  Coefficient  Atom+Function  
  ----- ------------  ---------------      ----- ------------  ---------------
     5      0.444819  1 C  s                 22      0.247503  2 O  px         
    25      0.213280  2 O  px                24      0.199073  2 O  pz         
    20     -0.188322  2 O  s                 21     -0.167653  2 O  s          
    27      0.144468  2 O  pz                37     -0.129820  5 H  s          
     3     -0.114451  1 C  s                 38     -0.101203  5 H  s          
 
 Vector    5  Occ=1.000000D+00  E=-1.207630D+00
              MO Center= -6.3D-02,  1.2D-01,  4.3D-01, r^2= 1.3D+00
   Bfn.  Coefficient  Atom+Function         Bfn.  Coefficient  Atom+Function  
  ----- ------------  ---------------      ----- ------------  ---------------
     5      0.304577  1 C  s                 22     -0.268823  2 O  px         
    25     -0.233567  2 O  px                 9      0.231673  1 C  pz         
    12      0.168866  1 C  pz                20     -0.152190  2 O  s          
    34      0.150866  4 H  s                 35      0.124180  4 H  s          
    10     -0.107285  1 C  px                 7     -0.084101  1 C  px         
 
 Vector    6  Occ=1.000000D+00  E=-1.140935D+00
              MO Center=  3.5D-01, -8.3D-02,  5.0D-02, r^2= 1.3D+00
   Bfn.  Coefficient  Atom+Function         Bfn.  Coefficient  Atom+Function  
  ----- ------------  ---------------      ----- ------------  ---------------
    24      0.323906  2 O  pz                 7     -0.275409  1 C  px         
    27      0.276070  2 O  pz                10     -0.230912  1 C  px         
     5     -0.172520  1 C  s                  9     -0.150490  1 C  pz         
    31     -0.144315  3 H  s                 32     -0.116247  3 H  s          
    23      0.092231  2 O  py                20     -0.084418  2 O  s          
 
 Vector    7  Occ=1.000000D+00  E=-1.074951D+00
              MO Center= -1.0D-01, -5.9D-02, -3.6D-01, r^2= 7.7D-01
   Bfn.  Coefficient  Atom+Function         Bfn.  Coefficient  Atom+Function  
  ----- ------------  ---------------      ----- ------------  ---------------
    23      0.430102  2 O  py                26      0.374574  2 O  py         
     8      0.202915  1 C  py                11      0.176974  1 C  py         
    29      0.146428  2 O  py                22      0.115941  2 O  px         
    24     -0.103574  2 O  pz                25      0.100972  2 O  px         
    27     -0.090202  2 O  pz                 7      0.054699  1 C  px         
 
 Vector    8  Occ=1.000000D+00  E=-1.023929D+00
              MO Center=  1.6D-01, -2.1D-03,  1.7D-01, r^2= 1.5D+00
   Bfn.  Coefficient  Atom+Function         Bfn.  Coefficient  Atom+Function  
  ----- ------------  ---------------      ----- ------------  ---------------
     7      0.242654  1 C  px                22     -0.239831  2 O  px         
    25     -0.218692  2 O  px                24      0.204675  2 O  pz         
    10      0.198963  1 C  px                35     -0.186318  4 H  s          
    27      0.172261  2 O  pz                32      0.162441  3 H  s          
     9     -0.149019  1 C  pz                34     -0.142735  4 H  s          
 
 Vector    9  Occ=0.000000D+00  E=-7.848730D-01
              MO Center=  2.0D-01,  3.3D-02,  3.6D-01, r^2= 1.1D+00
   Bfn.  Coefficient  Atom+Function         Bfn.  Coefficient  Atom+Function  
  ----- ------------  ---------------      ----- ------------  ---------------
    11      0.468944  1 C  py                 8      0.455776  1 C  py         
    23     -0.268807  2 O  py                26     -0.237857  2 O  py         
    29     -0.172062  2 O  py                14      0.154870  1 C  py         
    10      0.126412  1 C  px                 7      0.122862  1 C  px         
    12     -0.112925  1 C  pz                 9     -0.109754  1 C  pz         
 
 Vector   10  Occ=0.000000D+00  E=-5.473199D-01
              MO Center= -9.7D-01,  1.6D-01, -4.4D-01, r^2= 2.0D+00
   Bfn.  Coefficient  Atom+Function         Bfn.  Coefficient  Atom+Function  
  ----- ------------  ---------------      ----- ------------  ---------------
    21      0.835978  2 O  s                 38     -0.638040  5 H  s          
    39     -0.531553  5 H  s                 20      0.358141  2 O  s          
    12      0.329595  1 C  pz                13      0.259389  1 C  px         
    28     -0.204549  2 O  px                25     -0.198059  2 O  px         
    15      0.192539  1 C  pz                22     -0.185996  2 O  px         
 
 Vector   11  Occ=0.000000D+00  E=-4.747869D-01
              MO Center=  1.8D-02,  2.6D-01,  1.1D+00, r^2= 2.4D+00
   Bfn.  Coefficient  Atom+Function         Bfn.  Coefficient  Atom+Function  
  ----- ------------  ---------------      ----- ------------  ---------------
     6      1.476097  1 C  s                  5      0.858280  1 C  s          
    36     -0.827521  4 H  s                 35     -0.563498  4 H  s          
    33     -0.497023  3 H  s                 21     -0.461253  2 O  s          
    32     -0.308409  3 H  s                 30     -0.298618  2 O  pz         
    27     -0.232800  2 O  pz                10     -0.202358  1 C  px         
 
 Vector   12  Occ=0.000000D+00  E=-4.397832D-01
              MO Center=  7.2D-01, -1.1D-01,  3.5D-01, r^2= 2.6D+00
   Bfn.  Coefficient  Atom+Function         Bfn.  Coefficient  Atom+Function  
  ----- ------------  ---------------      ----- ------------  ---------------
    33      1.053551  3 H  s                 13     -0.592342  1 C  px         
    10     -0.581280  1 C  px                15     -0.558713  1 C  pz         
    32      0.551463  3 H  s                 21     -0.520872  2 O  s          
    39     -0.405376  5 H  s                 12     -0.350193  1 C  pz         
     7     -0.313464  1 C  px                38     -0.286735  5 H  s          
 
 Vector   13  Occ=0.000000D+00  E=-3.856726D-01
              MO Center=  1.4D-01,  9.9D-02,  5.7D-01, r^2= 3.3D+00
   Bfn.  Coefficient  Atom+Function         Bfn.  Coefficient  Atom+Function  
  ----- ------------  ---------------      ----- ------------  ---------------
    36      1.008641  4 H  s                 33     -0.739524  3 H  s          
    15     -0.700363  1 C  pz                39     -0.676827  5 H  s          
    12     -0.662428  1 C  pz                21     -0.541756  2 O  s          
     6      0.515828  1 C  s                 35      0.427405  4 H  s          
    28     -0.347300  2 O  px                 5      0.311169  1 C  s          
 
 Vector   14  Occ=0.000000D+00  E=-2.829290D-01
              MO Center=  2.6D-01,  5.2D-02,  5.1D-01, r^2= 4.1D+00
   Bfn.  Coefficient  Atom+Function         Bfn.  Coefficient  Atom+Function  
  ----- ------------  ---------------      ----- ------------  ---------------
    14      1.138907  1 C  py                11     -0.493427  1 C  py         
    13      0.307002  1 C  px                 8     -0.278092  1 C  py         
    15     -0.274254  1 C  pz                10     -0.133010  1 C  px         
    12      0.118822  1 C  pz                26     -0.116205  2 O  py         
    29      0.091997  2 O  py                23     -0.089589  2 O  py         
 
 Vector   15  Occ=0.000000D+00  E=-2.702258D-01
              MO Center= -6.0D-01,  2.8D-01,  5.0D-01, r^2= 2.6D+00
   Bfn.  Coefficient  Atom+Function         Bfn.  Coefficient  Atom+Function  
  ----- ------------  ---------------      ----- ------------  ---------------
    13      1.288501  1 C  px                35      0.962868  4 H  s          
    33     -0.840126  3 H  s                  6     -0.811881  1 C  s          
     5      0.788229  1 C  s                 38      0.549118  5 H  s          
    12     -0.505395  1 C  pz                14     -0.341610  1 C  py         
    10     -0.317204  1 C  px                32      0.314898  3 H  s          
 
 Vector   16  Occ=0.000000D+00  E=-2.560463D-01
              MO Center=  6.3D-01, -1.6D-01,  3.8D-02, r^2= 3.6D+00
   Bfn.  Coefficient  Atom+Function         Bfn.  Coefficient  Atom+Function  
  ----- ------------  ---------------      ----- ------------  ---------------
    13      1.992605  1 C  px                36      1.479359  4 H  s          
     6      1.244923  1 C  s                 33     -1.145965  3 H  s          
    32     -0.971805  3 H  s                 15     -0.796876  1 C  pz         
    14     -0.729029  1 C  py                30     -0.362998  2 O  pz         
     5     -0.334335  1 C  s                 21     -0.298994  2 O  s          
 
 Vector   17  Occ=0.000000D+00  E=-2.434487D-01
              MO Center=  6.5D-01,  4.4D-02,  9.1D-01, r^2= 3.4D+00
   Bfn.  Coefficient  Atom+Function         Bfn.  Coefficient  Atom+Function  
  ----- ------------  ---------------      ----- ------------  ---------------
    15      1.547251  1 C  pz                 6      0.670280  1 C  s          
    12     -0.573074  1 C  pz                35     -0.485557  4 H  s          
     5      0.382775  1 C  s                 30     -0.369275  2 O  pz         
    36     -0.357030  4 H  s                  9     -0.320428  1 C  pz         
    14      0.305850  1 C  py                10     -0.266261  1 C  px         
 
 Vector   18  Occ=0.000000D+00  E=-1.697508D-01
              MO Center= -6.0D-01, -8.7D-02, -1.0D+00, r^2= 3.9D+00
   Bfn.  Coefficient  Atom+Function         Bfn.  Coefficient  Atom+Function  
  ----- ------------  ---------------      ----- ------------  ---------------
    39     -1.313990  5 H  s                 33      1.215410  3 H  s          
    38      1.150981  5 H  s                 13     -0.694639  1 C  px         
    30      0.696380  2 O  pz                32     -0.580167  3 H  s          
    36     -0.489882  4 H  s                  5     -0.380076  1 C  s          
    28      0.327085  2 O  px                10      0.210673  1 C  px         
 
 Vector   19  Occ=0.000000D+00  E=-9.628172D-02
              MO Center= -1.2D-01, -6.3D-02, -3.9D-01, r^2= 3.3D+00
   Bfn.  Coefficient  Atom+Function         Bfn.  Coefficient  Atom+Function  
  ----- ------------  ---------------      ----- ------------  ---------------
    29      1.485005  2 O  py                14     -0.798468  1 C  py         
    26     -0.537233  2 O  py                28      0.400303  2 O  px         
    30     -0.357605  2 O  pz                23     -0.275920  2 O  py         
    13     -0.215248  1 C  px                15      0.192278  1 C  pz         
    25     -0.144819  2 O  px                27      0.129371  2 O  pz         
 
 Vector   20  Occ=0.000000D+00  E=-6.058497D-02
              MO Center=  7.5D-02,  3.4D-01,  1.5D+00, r^2= 4.9D+00
   Bfn.  Coefficient  Atom+Function         Bfn.  Coefficient  Atom+Function  
  ----- ------------  ---------------      ----- ------------  ---------------
    36      3.888058  4 H  s                 33     -2.693670  3 H  s          
    13      2.246224  1 C  px                 6     -1.516688  1 C  s          
    15     -1.338706  1 C  pz                35     -0.979046  4 H  s          
    14     -0.927879  1 C  py                32      0.852629  3 H  s          
    10     -0.567929  1 C  px                 5      0.496396  1 C  s          
 
 Vector   21  Occ=0.000000D+00  E=-3.563964D-02
              MO Center=  5.5D-01, -7.1D-04,  6.2D-01, r^2= 5.4D+00
   Bfn.  Coefficient  Atom+Function         Bfn.  Coefficient  Atom+Function  
  ----- ------------  ---------------      ----- ------------  ---------------
     6      5.430023  1 C  s                 33     -2.507715  3 H  s          
     5     -2.061251  1 C  s                 36     -1.176463  4 H  s          
    39     -0.856870  5 H  s                 30     -0.829093  2 O  pz         
    28     -0.808495  2 O  px                13      0.632725  1 C  px         
    21     -0.569703  2 O  s                 32      0.457831  3 H  s          
 
 Vector   22  Occ=0.000000D+00  E=-3.645730D-03
              MO Center= -5.3D-01, -3.0D-02, -7.2D-01, r^2= 4.8D+00
   Bfn.  Coefficient  Atom+Function         Bfn.  Coefficient  Atom+Function  
  ----- ------------  ---------------      ----- ------------  ---------------
    13      2.788430  1 C  px                33     -2.725909  3 H  s          
    39      2.156188  5 H  s                 30      1.914144  2 O  pz         
     5     -0.954839  1 C  s                 36      0.751846  4 H  s          
    14     -0.704628  1 C  py                28      0.528078  2 O  px         
    38     -0.455595  5 H  s                 27     -0.433873  2 O  pz         
 
 Vector   23  Occ=0.000000D+00  E= 1.195949D-01
              MO Center=  1.8D-01, -1.6D-01, -4.5D-01, r^2= 4.0D+00
   Bfn.  Coefficient  Atom+Function         Bfn.  Coefficient  Atom+Function  
  ----- ------------  ---------------      ----- ------------  ---------------
    28      3.423770  2 O  px                36     -2.992558  4 H  s          
    13     -2.942544  1 C  px                15      2.391092  1 C  pz         
    33      1.612022  3 H  s                 38      1.496289  5 H  s          
    14      1.369000  1 C  py                29     -0.947655  2 O  py         
    39      0.735138  5 H  s                 32      0.635852  3 H  s          
 
 Vector   24  Occ=0.000000D+00  E= 3.805866D-01
              MO Center= -1.1D-01, -4.7D-02, -3.1D-01, r^2= 2.5D+00
   Bfn.  Coefficient  Atom+Function         Bfn.  Coefficient  Atom+Function  
  ----- ------------  ---------------      ----- ------------  ---------------
    21      5.365714  2 O  s                  6     -3.120177  1 C  s          
    20     -2.735809  2 O  s                 30      1.404923  2 O  pz         
    12      0.899977  1 C  pz                38     -0.756042  5 H  s          
    15      0.709650  1 C  pz                13      0.627804  1 C  px         
     5     -0.470215  1 C  s                 19      0.378769  2 O  s          
 
 Vector   25  Occ=0.000000D+00  E= 6.965677D-01
              MO Center=  3.0D-01,  6.3D-02,  6.0D-01, r^2= 1.8D+00
   Bfn.  Coefficient  Atom+Function         Bfn.  Coefficient  Atom+Function  
  ----- ------------  ---------------      ----- ------------  ---------------
    11      1.659803  1 C  py                 8     -1.153312  1 C  py         
    14     -0.866126  1 C  py                10      0.447426  1 C  px         
    12     -0.399691  1 C  pz                 7     -0.310894  1 C  px         
     9      0.277725  1 C  pz                13     -0.233476  1 C  px         
    15      0.208568  1 C  pz                26     -0.103151  2 O  py         
 
 Vector   26  Occ=0.000000D+00  E= 7.065729D-01
              MO Center=  3.5D-01,  6.1D-02,  6.5D-01, r^2= 1.9D+00
   Bfn.  Coefficient  Atom+Function         Bfn.  Coefficient  Atom+Function  
  ----- ------------  ---------------      ----- ------------  ---------------
    12      2.437016  1 C  pz                15     -1.287459  1 C  pz         
     6     -1.114122  1 C  s                  9     -1.083634  1 C  pz         
    10      1.073923  1 C  px                36      0.719925  4 H  s          
    21      0.681884  2 O  s                  5     -0.545937  1 C  s          
    27      0.527977  2 O  pz                20      0.519411  2 O  s          
 
 Vector   27  Occ=0.000000D+00  E= 8.312646D-01
              MO Center=  2.0D-01,  4.7D-02,  4.3D-01, r^2= 1.9D+00
   Bfn.  Coefficient  Atom+Function         Bfn.  Coefficient  Atom+Function  
  ----- ------------  ---------------      ----- ------------  ---------------
    10      2.391255  1 C  px                13     -1.950455  1 C  px         
    33      1.813733  3 H  s                 36     -1.505512  4 H  s          
     7     -1.117895  1 C  px                32     -1.005937  3 H  s          
    12     -0.949051  1 C  pz                35      0.949034  4 H  s          
    11     -0.873139  1 C  py                14      0.655297  1 C  py         
 
 Vector   28  Occ=0.000000D+00  E= 1.397595D+00
              MO Center= -8.0D-01,  1.0D-01, -4.7D-01, r^2= 2.3D+00
   Bfn.  Coefficient  Atom+Function         Bfn.  Coefficient  Atom+Function  
  ----- ------------  ---------------      ----- ------------  ---------------
    38      2.042658  5 H  s                 37     -1.116642  5 H  s          
    39     -1.095732  5 H  s                 25      0.886839  2 O  px         
    32      0.785611  3 H  s                  5     -0.674576  1 C  s          
     6      0.600433  1 C  s                 22     -0.549960  2 O  px         
    31     -0.471780  3 H  s                 35      0.422877  4 H  s          
 
 Vector   29  Occ=0.000000D+00  E= 1.465446D+00
              MO Center=  1.0D-01,  1.6D-01,  7.8D-01, r^2= 2.8D+00
   Bfn.  Coefficient  Atom+Function         Bfn.  Coefficient  Atom+Function  
  ----- ------------  ---------------      ----- ------------  ---------------
     5      2.858964  1 C  s                  4     -1.903682  1 C  s          
    35     -1.601472  4 H  s                  6     -1.458891  1 C  s          
    32     -1.201527  3 H  s                 36      1.052977  4 H  s          
    38      0.948249  5 H  s                 34      0.901679  4 H  s          
    33      0.850126  3 H  s                 31      0.692711  3 H  s          
 
 Vector   30  Occ=0.000000D+00  E= 1.615427D+00
              MO Center=  6.0D-01,  8.6D-02,  1.0D+00, r^2= 2.3D+00
   Bfn.  Coefficient  Atom+Function         Bfn.  Coefficient  Atom+Function  
  ----- ------------  ---------------      ----- ------------  ---------------
    32      1.722088  3 H  s                 35     -1.600045  4 H  s          
    31     -1.106740  3 H  s                 34      1.072133  4 H  s          
    33     -0.985556  3 H  s                 36      0.791256  4 H  s          
     5     -0.591108  1 C  s                  6      0.506267  1 C  s          
     4      0.472745  1 C  s                 38     -0.303512  5 H  s          
 
 Vector   31  Occ=0.000000D+00  E= 1.679804D+00
              MO Center=  3.6D-01,  6.5D-02,  6.8D-01, r^2= 1.6D+00
   Bfn.  Coefficient  Atom+Function         Bfn.  Coefficient  Atom+Function  
  ----- ------------  ---------------      ----- ------------  ---------------
     5      4.266053  1 C  s                  4     -3.360718  1 C  s          
     6     -3.054369  1 C  s                 31     -0.692355  3 H  s          
     3      0.654069  1 C  s                 32      0.633013  3 H  s          
    36      0.621877  4 H  s                 34     -0.551803  4 H  s          
    27     -0.503982  2 O  pz                35      0.484376  4 H  s          
 
 Vector   32  Occ=0.000000D+00  E= 1.761165D+00
              MO Center= -2.0D-01, -8.8D-02, -5.8D-01, r^2= 1.0D+00
   Bfn.  Coefficient  Atom+Function         Bfn.  Coefficient  Atom+Function  
  ----- ------------  ---------------      ----- ------------  ---------------
    26      1.637951  2 O  py                23     -1.120243  2 O  py         
    29     -0.934954  2 O  py                25      0.441529  2 O  px         
    27     -0.394431  2 O  pz                14      0.351853  1 C  py         
    22     -0.301975  2 O  px                24      0.269763  2 O  pz         
    28     -0.252028  2 O  px                30      0.225143  2 O  pz         
 
 Vector   33  Occ=0.000000D+00  E= 1.909634D+00
              MO Center= -1.7D-01, -1.0D-01, -6.2D-01, r^2= 1.2D+00
   Bfn.  Coefficient  Atom+Function         Bfn.  Coefficient  Atom+Function  
  ----- ------------  ---------------      ----- ------------  ---------------
    27      1.646046  2 O  pz                13     -1.286564  1 C  px         
    30     -1.115677  2 O  pz                24     -1.065392  2 O  pz         
    33      0.962736  3 H  s                  4     -0.880152  1 C  s          
     5      0.852401  1 C  s                 36     -0.684127  4 H  s          
    38      0.626906  5 H  s                 26      0.496650  2 O  py         
 
 Vector   34  Occ=0.000000D+00  E= 2.218334D+00
              MO Center= -2.9D-01, -7.3D-02, -6.2D-01, r^2= 1.2D+00
   Bfn.  Coefficient  Atom+Function         Bfn.  Coefficient  Atom+Function  
  ----- ------------  ---------------      ----- ------------  ---------------
    28     -1.830185  2 O  px                25      1.726699  2 O  px         
    38     -1.272994  5 H  s                 36      1.038242  4 H  s          
    22     -1.003599  2 O  px                13      0.968438  1 C  px         
    37      0.953272  5 H  s                 15     -0.865317  1 C  pz         
    27      0.607516  2 O  pz                33     -0.604093  3 H  s          
 
 Vector   35  Occ=0.000000D+00  E= 3.749581D+00
              MO Center= -1.9D-01, -7.7D-02, -5.3D-01, r^2= 8.1D-01
   Bfn.  Coefficient  Atom+Function         Bfn.  Coefficient  Atom+Function  
  ----- ------------  ---------------      ----- ------------  ---------------
    20      4.705326  2 O  s                 19     -3.793663  2 O  s          
    21     -3.240016  2 O  s                  6      1.324922  1 C  s          
    18      0.803461  2 O  s                 30     -0.585610  2 O  pz         
    38      0.505310  5 H  s                 15     -0.376903  1 C  pz         
    13     -0.255998  1 C  px                37     -0.235003  5 H  s          
 
 Vector   36  Occ=0.000000D+00  E= 1.073378D+01
              MO Center=  2.9D-01,  6.0D-02,  5.7D-01, r^2= 3.3D-01
   Bfn.  Coefficient  Atom+Function         Bfn.  Coefficient  Atom+Function  
  ----- ------------  ---------------      ----- ------------  ---------------
     3      3.235931  1 C  s                  4     -3.197864  1 C  s          
     5      2.590456  1 C  s                  2     -1.708753  1 C  s          
     6     -1.155640  1 C  s                 33      0.348436  3 H  s          
    36      0.327568  4 H  s                  1     -0.185143  1 C  s          
    21     -0.149388  2 O  s                 15     -0.135553  1 C  pz         
 
 Vector   37  Occ=0.000000D+00  E= 2.099523D+01
              MO Center= -2.0D-01, -8.8D-02, -5.9D-01, r^2= 1.9D-01
   Bfn.  Coefficient  Atom+Function         Bfn.  Coefficient  Atom+Function  
  ----- ------------  ---------------      ----- ------------  ---------------
    18      3.302200  2 O  s                 19     -3.138977  2 O  s          
    20      2.404946  2 O  s                 17     -1.738197  2 O  s          
    21     -1.322067  2 O  s                  6      0.506580  1 C  s          
    30     -0.230960  2 O  pz                16     -0.180095  2 O  s          
    15     -0.166377  1 C  pz                38      0.144145  5 H  s          
 
 Vector   38  Occ=0.000000D+00  E= 6.165767D+01
              MO Center=  2.9D-01,  6.0D-02,  5.7D-01, r^2= 7.4D-02
   Bfn.  Coefficient  Atom+Function         Bfn.  Coefficient  Atom+Function  
  ----- ------------  ---------------      ----- ------------  ---------------
     2      2.933802  1 C  s                  3     -2.214218  1 C  s          
     1     -1.740950  1 C  s                  4      1.416607  1 C  s          
     5     -1.084086  1 C  s                  6      0.486715  1 C  s          
    33     -0.146240  3 H  s                 36     -0.136664  4 H  s          
    21      0.056436  2 O  s                 15      0.054787  1 C  pz         
 
 Vector   39  Occ=0.000000D+00  E= 1.169264D+02
              MO Center= -2.0D-01, -8.9D-02, -5.9D-01, r^2= 4.2D-02
   Bfn.  Coefficient  Atom+Function         Bfn.  Coefficient  Atom+Function  
  ----- ------------  ---------------      ----- ------------  ---------------
    17      2.963298  2 O  s                 18     -2.258714  2 O  s          
    16     -1.755427  2 O  s                 19      1.397042  2 O  s          
    20     -1.008888  2 O  s                 21      0.555752  2 O  s          
     6     -0.216541  1 C  s                 30      0.097722  2 O  pz         
    15      0.071318  1 C  pz                38     -0.059023  5 H  s          
 
 
                     DFT Final Beta Molecular Orbital Analysis
                     -----------------------------------------
 
 Vector    1  Occ=1.000000D+00  E=-1.958889D+01
              MO Center= -2.0D-01, -8.9D-02, -5.9D-01, r^2= 1.5D-02
   Bfn.  Coefficient  Atom+Function         Bfn.  Coefficient  Atom+Function  
  ----- ------------  ---------------      ----- ------------  ---------------
    17      0.424827  2 O  s                 18      0.366231  2 O  s          
    16      0.299596  2 O  s                 19      0.054477  2 O  s          
 
 Vector    2  Occ=1.000000D+00  E=-1.071859D+01
              MO Center=  2.9D-01,  6.0D-02,  5.7D-01, r^2= 2.8D-02
   Bfn.  Coefficient  Atom+Function         Bfn.  Coefficient  Atom+Function  
  ----- ------------  ---------------      ----- ------------  ---------------
     2      0.424245  1 C  s                  3      0.359939  1 C  s          
     1      0.308818  1 C  s                  4      0.055916  1 C  s          
 
 Vector    3  Occ=1.000000D+00  E=-1.732900D+00
              MO Center= -1.9D-01, -2.7D-02, -3.2D-01, r^2= 4.9D-01
   Bfn.  Coefficient  Atom+Function         Bfn.  Coefficient  Atom+Function  
  ----- ------------  ---------------      ----- ------------  ---------------
    20      0.551095  2 O  s                 21      0.232290  2 O  s          
     5      0.191426  1 C  s                 18     -0.144127  2 O  s          
    17     -0.121063  2 O  s                  9     -0.116487  1 C  pz         
    19      0.111311  2 O  s                 24      0.108255  2 O  pz         
    27      0.104019  2 O  pz                 3     -0.068694  1 C  s          
 
 Vector    4  Occ=1.000000D+00  E=-1.316467D+00
              MO Center= -1.5D-01, -1.5D-02, -2.3D-01, r^2= 1.2D+00
   Bfn.  Coefficient  Atom+Function         Bfn.  Coefficient  Atom+Function  
  ----- ------------  ---------------      ----- ------------  ---------------
     5      0.444683  1 C  s                 22      0.250548  2 O  px         
    25      0.218384  2 O  px                24      0.196055  2 O  pz         
    20     -0.192085  2 O  s                 21     -0.171770  2 O  s          
    27      0.143344  2 O  pz                37     -0.131228  5 H  s          
     3     -0.112457  1 C  s                 38     -0.104879  5 H  s          
 
 Vector    5  Occ=1.000000D+00  E=-1.175660D+00
              MO Center=  1.8D-02,  1.3D-01,  5.8D-01, r^2= 1.2D+00
   Bfn.  Coefficient  Atom+Function         Bfn.  Coefficient  Atom+Function  
  ----- ------------  ---------------      ----- ------------  ---------------
     5      0.348366  1 C  s                  9      0.267843  1 C  pz         
    22     -0.232475  2 O  px                25     -0.205157  2 O  px         
    12      0.193228  1 C  pz                34      0.143610  4 H  s          
    20     -0.131713  2 O  s                 35      0.115088  4 H  s          
     6      0.092542  1 C  s                 38      0.084669  5 H  s          
 
 Vector    6  Occ=1.000000D+00  E=-1.103349D+00
              MO Center=  3.7D-01, -7.4D-02,  1.0D-01, r^2= 1.2D+00
   Bfn.  Coefficient  Atom+Function         Bfn.  Coefficient  Atom+Function  
  ----- ------------  ---------------      ----- ------------  ---------------
     7      0.322758  1 C  px                10      0.293256  1 C  px         
    24     -0.273037  2 O  pz                27     -0.231910  2 O  pz         
    31      0.144988  3 H  s                  5      0.106933  1 C  s          
    20      0.104937  2 O  s                 32      0.102064  3 H  s          
    21      0.091124  2 O  s                 23     -0.084194  2 O  py         
 
 Vector    7  Occ=1.000000D+00  E=-1.059764D+00
              MO Center= -9.1D-02, -5.5D-02, -3.3D-01, r^2= 8.1D-01
   Bfn.  Coefficient  Atom+Function         Bfn.  Coefficient  Atom+Function  
  ----- ------------  ---------------      ----- ------------  ---------------
    23      0.417768  2 O  py                26      0.365483  2 O  py         
     8      0.217092  1 C  py                11      0.192030  1 C  py         
    29      0.148264  2 O  py                22      0.112616  2 O  px         
    24     -0.100603  2 O  pz                25      0.098522  2 O  px         
    27     -0.088013  2 O  pz                 7      0.058521  1 C  px         
 
 Vector    8  Occ=0.000000D+00  E=-9.632909D-01
              MO Center=  8.2D-02, -3.0D-02, -3.1D-02, r^2= 1.5D+00
   Bfn.  Coefficient  Atom+Function         Bfn.  Coefficient  Atom+Function  
  ----- ------------  ---------------      ----- ------------  ---------------
    22      0.248009  2 O  px                24     -0.238105  2 O  pz         
    25      0.228866  2 O  px                27     -0.204698  2 O  pz         
     7     -0.198217  1 C  px                35      0.183839  4 H  s          
    20      0.160604  2 O  s                 10     -0.157490  1 C  px         
    32     -0.157224  3 H  s                  9      0.154645  1 C  pz         
 
 Vector    9  Occ=0.000000D+00  E=-7.788394D-01
              MO Center=  1.9D-01,  2.9D-02,  3.3D-01, r^2= 1.1D+00
   Bfn.  Coefficient  Atom+Function         Bfn.  Coefficient  Atom+Function  
  ----- ------------  ---------------      ----- ------------  ---------------
    11      0.463043  1 C  py                 8      0.450592  1 C  py         
    23     -0.280214  2 O  py                26     -0.248956  2 O  py         
    29     -0.181904  2 O  py                14      0.154519  1 C  py         
    10      0.124821  1 C  px                 7      0.121464  1 C  px         
    12     -0.111504  1 C  pz                 9     -0.108505  1 C  pz         
 
 Vector   10  Occ=0.000000D+00  E=-5.329341D-01
              MO Center= -9.6D-01,  1.5D-01, -4.3D-01, r^2= 2.1D+00
   Bfn.  Coefficient  Atom+Function         Bfn.  Coefficient  Atom+Function  
  ----- ------------  ---------------      ----- ------------  ---------------
    21      0.862667  2 O  s                 38     -0.606839  5 H  s          
    39     -0.549934  5 H  s                 20      0.354344  2 O  s          
    12      0.335620  1 C  pz                13      0.267449  1 C  px         
    15      0.217563  1 C  pz                28     -0.201813  2 O  px         
    25     -0.195255  2 O  px                22     -0.181940  2 O  px         
 
 Vector   11  Occ=0.000000D+00  E=-4.527781D-01
              MO Center=  3.7D-02,  2.5D-01,  1.1D+00, r^2= 2.5D+00
   Bfn.  Coefficient  Atom+Function         Bfn.  Coefficient  Atom+Function  
  ----- ------------  ---------------      ----- ------------  ---------------
     6      1.524910  1 C  s                  5      0.852131  1 C  s          
    36     -0.827074  4 H  s                 33     -0.554463  3 H  s          
    21     -0.504534  2 O  s                 35     -0.496926  4 H  s          
    30     -0.328200  2 O  pz                32     -0.290756  3 H  s          
    27     -0.244855  2 O  pz                28     -0.203421  2 O  px         
 
 Vector   12  Occ=0.000000D+00  E=-4.254514D-01
              MO Center=  6.5D-01, -1.1D-01,  2.7D-01, r^2= 2.8D+00
   Bfn.  Coefficient  Atom+Function         Bfn.  Coefficient  Atom+Function  
  ----- ------------  ---------------      ----- ------------  ---------------
    33      1.037011  3 H  s                 15     -0.618605  1 C  pz         
    13     -0.568227  1 C  px                10     -0.541202  1 C  px         
    21     -0.524542  2 O  s                 32      0.499136  3 H  s          
    39     -0.485903  5 H  s                 12     -0.375185  1 C  pz         
    38     -0.320362  5 H  s                  7     -0.286437  1 C  px         
 
 Vector   13  Occ=0.000000D+00  E=-3.631337D-01
              MO Center=  1.8D-01,  1.1D-01,  6.7D-01, r^2= 3.5D+00
   Bfn.  Coefficient  Atom+Function         Bfn.  Coefficient  Atom+Function  
  ----- ------------  ---------------      ----- ------------  ---------------
    36      1.099147  4 H  s                 33     -0.813919  3 H  s          
    15     -0.688599  1 C  pz                39     -0.685852  5 H  s          
    12     -0.609474  1 C  pz                21     -0.490771  2 O  s          
     6      0.453824  1 C  s                 35      0.403713  4 H  s          
    28     -0.321140  2 O  px                10      0.304261  1 C  px         
 
 Vector   14  Occ=0.000000D+00  E=-2.815120D-01
              MO Center=  2.7D-01,  5.3D-02,  5.2D-01, r^2= 4.1D+00
   Bfn.  Coefficient  Atom+Function         Bfn.  Coefficient  Atom+Function  
  ----- ------------  ---------------      ----- ------------  ---------------
    14      1.144434  1 C  py                11     -0.492256  1 C  py         
    13      0.308494  1 C  px                 8     -0.277483  1 C  py         
    15     -0.275586  1 C  pz                10     -0.132695  1 C  px         
    12      0.118540  1 C  pz                26     -0.115498  2 O  py         
    23     -0.088419  2 O  py                29      0.082374  2 O  py         
 
 Vector   15  Occ=0.000000D+00  E=-2.605940D-01
              MO Center= -6.2D-01,  2.6D-01,  3.9D-01, r^2= 2.5D+00
   Bfn.  Coefficient  Atom+Function         Bfn.  Coefficient  Atom+Function  
  ----- ------------  ---------------      ----- ------------  ---------------
    13      1.489061  1 C  px                33     -0.938489  3 H  s          
    35      0.895856  4 H  s                  5      0.835518  1 C  s          
     6     -0.750673  1 C  s                 12     -0.576839  1 C  pz         
    38      0.546495  5 H  s                 14     -0.376431  1 C  py         
    30     -0.355074  2 O  pz                10     -0.345490  1 C  px         
 
 Vector   16  Occ=0.000000D+00  E=-2.426082D-01
              MO Center=  6.5D-01, -4.1D-02,  5.5D-01, r^2= 3.7D+00
   Bfn.  Coefficient  Atom+Function         Bfn.  Coefficient  Atom+Function  
  ----- ------------  ---------------      ----- ------------  ---------------
    13      1.942498  1 C  px                 6      1.622190  1 C  s          
    36      1.363166  4 H  s                 33     -1.155642  3 H  s          
    32     -1.048426  3 H  s                 14     -0.620284  1 C  py         
    15     -0.401372  1 C  pz                30     -0.393296  2 O  pz         
    28     -0.382641  2 O  px                35     -0.383974  4 H  s          
 
 Vector   17  Occ=0.000000D+00  E=-2.340211D-01
              MO Center=  6.9D-01, -6.4D-02,  5.0D-01, r^2= 3.5D+00
   Bfn.  Coefficient  Atom+Function         Bfn.  Coefficient  Atom+Function  
  ----- ------------  ---------------      ----- ------------  ---------------
    15      1.756203  1 C  pz                36     -0.883390  4 H  s          
    14      0.563205  1 C  py                12     -0.544295  1 C  pz         
    35     -0.534298  4 H  s                 13     -0.520466  1 C  px         
     6      0.496740  1 C  s                 33      0.455199  3 H  s          
     5      0.374772  1 C  s                  9     -0.303663  1 C  pz         
 
 Vector   18  Occ=0.000000D+00  E=-1.575402D-01
              MO Center= -6.3D-01, -7.6D-02, -1.0D+00, r^2= 3.9D+00
   Bfn.  Coefficient  Atom+Function         Bfn.  Coefficient  Atom+Function  
  ----- ------------  ---------------      ----- ------------  ---------------
    39     -1.311064  5 H  s                 33      1.294095  3 H  s          
    38      1.203729  5 H  s                 13     -0.839447  1 C  px         
    30      0.671904  2 O  pz                36     -0.668137  4 H  s          
    32     -0.558346  3 H  s                  5     -0.379679  1 C  s          
    28      0.380901  2 O  px                14      0.242316  1 C  py         
 
 Vector   19  Occ=0.000000D+00  E=-8.972075D-02
              MO Center= -1.2D-01, -6.4D-02, -4.0D-01, r^2= 3.3D+00
   Bfn.  Coefficient  Atom+Function         Bfn.  Coefficient  Atom+Function  
  ----- ------------  ---------------      ----- ------------  ---------------
    29      1.486471  2 O  py                14     -0.791664  1 C  py         
    26     -0.545285  2 O  py                28      0.400699  2 O  px         
    30     -0.357958  2 O  pz                23     -0.277120  2 O  py         
    13     -0.213414  1 C  px                15      0.190639  1 C  pz         
    25     -0.146989  2 O  px                27      0.131310  2 O  pz         
 
 Vector   20  Occ=0.000000D+00  E=-4.171218D-02
              MO Center= -4.4D-02,  3.8D-01,  1.5D+00, r^2= 4.6D+00
   Bfn.  Coefficient  Atom+Function         Bfn.  Coefficient  Atom+Function  
  ----- ------------  ---------------      ----- ------------  ---------------
    36      3.920324  4 H  s                 33     -2.442099  3 H  s          
    13      2.151220  1 C  px                 6     -1.937236  1 C  s          
    15     -1.306403  1 C  pz                35     -1.048587  4 H  s          
    14     -0.894489  1 C  py                32      0.833322  3 H  s          
     5      0.634644  1 C  s                 10     -0.566668  1 C  px         
 
 Vector   21  Occ=0.000000D+00  E=-2.597192D-02
              MO Center=  6.6D-01, -4.3D-02,  5.6D-01, r^2= 5.4D+00
   Bfn.  Coefficient  Atom+Function         Bfn.  Coefficient  Atom+Function  
  ----- ------------  ---------------      ----- ------------  ---------------
     6      5.224288  1 C  s                 33     -2.680317  3 H  s          
     5     -2.001412  1 C  s                 39     -0.888582  5 H  s          
    36     -0.873782  4 H  s                 28     -0.819751  2 O  px         
    30     -0.816029  2 O  pz                13      0.774806  1 C  px         
    32      0.574999  3 H  s                 21     -0.550166  2 O  s          
 
 Vector   22  Occ=0.000000D+00  E= 6.050265D-03
              MO Center= -5.3D-01, -3.2D-02, -7.2D-01, r^2= 4.8D+00
   Bfn.  Coefficient  Atom+Function         Bfn.  Coefficient  Atom+Function  
  ----- ------------  ---------------      ----- ------------  ---------------
    13      2.657275  1 C  px                33     -2.659285  3 H  s          
    39      2.157148  5 H  s                 30      1.920896  2 O  pz         
     5     -0.995294  1 C  s                 14     -0.642380  1 C  py         
    28      0.640438  2 O  px                36      0.588779  4 H  s          
    21      0.455962  2 O  s                 27     -0.440748  2 O  pz         
 
 Vector   23  Occ=0.000000D+00  E= 1.340314D-01
              MO Center=  1.8D-01, -1.6D-01, -4.5D-01, r^2= 3.9D+00
   Bfn.  Coefficient  Atom+Function         Bfn.  Coefficient  Atom+Function  
  ----- ------------  ---------------      ----- ------------  ---------------
    28      3.394641  2 O  px                13     -3.004941  1 C  px         
    36     -2.986255  4 H  s                 15      2.338624  1 C  pz         
    33      1.654396  3 H  s                 38      1.502372  5 H  s          
    14      1.373186  1 C  py                29     -0.966460  2 O  py         
    39      0.675005  5 H  s                 32      0.632134  3 H  s          
 
 Vector   24  Occ=0.000000D+00  E= 3.940591D-01
              MO Center= -9.2D-02, -5.2D-02, -3.2D-01, r^2= 2.4D+00
   Bfn.  Coefficient  Atom+Function         Bfn.  Coefficient  Atom+Function  
  ----- ------------  ---------------      ----- ------------  ---------------
    21      5.350884  2 O  s                  6     -3.093011  1 C  s          
    20     -2.755049  2 O  s                 30      1.373796  2 O  pz         
    12      0.886328  1 C  pz                15      0.758761  1 C  pz         
    38     -0.728574  5 H  s                 13      0.552275  1 C  px         
     5     -0.467838  1 C  s                 19      0.388666  2 O  s          
 
 Vector   25  Occ=0.000000D+00  E= 6.971958D-01
              MO Center=  3.0D-01,  6.3D-02,  6.0D-01, r^2= 1.8D+00
   Bfn.  Coefficient  Atom+Function         Bfn.  Coefficient  Atom+Function  
  ----- ------------  ---------------      ----- ------------  ---------------
    11      1.660142  1 C  py                 8     -1.153091  1 C  py         
    14     -0.865667  1 C  py                10      0.447517  1 C  px         
    12     -0.399771  1 C  pz                 7     -0.310834  1 C  px         
     9      0.277671  1 C  pz                13     -0.233352  1 C  px         
    15      0.208456  1 C  pz                26     -0.104357  2 O  py         
 
 Vector   26  Occ=0.000000D+00  E= 7.108709D-01
              MO Center=  3.4D-01,  6.7D-02,  6.6D-01, r^2= 1.9D+00
   Bfn.  Coefficient  Atom+Function         Bfn.  Coefficient  Atom+Function  
  ----- ------------  ---------------      ----- ------------  ---------------
    12      2.406966  1 C  pz                15     -1.265653  1 C  pz         
    10      1.155355  1 C  px                 6     -1.119553  1 C  s          
     9     -1.070930  1 C  pz                21      0.718361  2 O  s          
    36      0.664533  4 H  s                 13     -0.561765  1 C  px         
     5     -0.552746  1 C  s                 33      0.552351  3 H  s          
 
 Vector   27  Occ=0.000000D+00  E= 8.493915D-01
              MO Center=  2.1D-01,  4.3D-02,  4.2D-01, r^2= 1.9D+00
   Bfn.  Coefficient  Atom+Function         Bfn.  Coefficient  Atom+Function  
  ----- ------------  ---------------      ----- ------------  ---------------
    10      2.348310  1 C  px                13     -1.918537  1 C  px         
    33      1.772482  3 H  s                 36     -1.509910  4 H  s          
     7     -1.103920  1 C  px                12     -1.026240  1 C  pz         
    32     -0.983843  3 H  s                 35      0.947234  4 H  s          
    11     -0.880149  1 C  py                14      0.655775  1 C  py         
 
 Vector   28  Occ=0.000000D+00  E= 1.421337D+00
              MO Center= -8.8D-01,  1.0D-01, -5.5D-01, r^2= 2.1D+00
   Bfn.  Coefficient  Atom+Function         Bfn.  Coefficient  Atom+Function  
  ----- ------------  ---------------      ----- ------------  ---------------
    38      2.109068  5 H  s                 37     -1.156891  5 H  s          
    39     -1.123708  5 H  s                 25      0.878998  2 O  px         
    32      0.703566  3 H  s                  5     -0.570700  1 C  s          
     6      0.560112  1 C  s                 22     -0.554332  2 O  px         
    31     -0.425094  3 H  s                 21     -0.391168  2 O  s          
 
 Vector   29  Occ=0.000000D+00  E= 1.497710D+00
              MO Center=  2.3D-01,  1.3D-01,  8.0D-01, r^2= 2.7D+00
   Bfn.  Coefficient  Atom+Function         Bfn.  Coefficient  Atom+Function  
  ----- ------------  ---------------      ----- ------------  ---------------
     5      3.163628  1 C  s                  4     -2.143677  1 C  s          
     6     -1.694495  1 C  s                 35     -1.501108  4 H  s          
    32     -1.277855  3 H  s                 36      1.024429  4 H  s          
    33      0.946973  3 H  s                 34      0.836781  4 H  s          
    38      0.838930  5 H  s                 31      0.726808  3 H  s          
 
 Vector   30  Occ=0.000000D+00  E= 1.655992D+00
              MO Center=  5.3D-01,  1.1D-01,  1.1D+00, r^2= 2.2D+00
   Bfn.  Coefficient  Atom+Function         Bfn.  Coefficient  Atom+Function  
  ----- ------------  ---------------      ----- ------------  ---------------
    32      1.661108  3 H  s                 35     -1.662049  4 H  s          
    34      1.112942  4 H  s                 31     -1.079451  3 H  s          
    33     -0.935429  3 H  s                 36      0.838435  4 H  s          
     5     -0.416176  1 C  s                  6      0.403642  1 C  s          
     4      0.351498  1 C  s                 10     -0.263607  1 C  px         
 
 Vector   31  Occ=0.000000D+00  E= 1.696349D+00
              MO Center=  3.8D-01,  6.7D-02,  7.0D-01, r^2= 1.6D+00
   Bfn.  Coefficient  Atom+Function         Bfn.  Coefficient  Atom+Function  
  ----- ------------  ---------------      ----- ------------  ---------------
     5      4.097090  1 C  s                  4     -3.252627  1 C  s          
     6     -2.946458  1 C  s                 31     -0.737594  3 H  s          
    32      0.701886  3 H  s                  3      0.634575  1 C  s          
    34     -0.615175  4 H  s                 35      0.588004  4 H  s          
    36      0.544271  4 H  s                 27     -0.451075  2 O  pz         
 
 Vector   32  Occ=0.000000D+00  E= 1.776553D+00
              MO Center= -2.0D-01, -8.8D-02, -5.8D-01, r^2= 1.0D+00
   Bfn.  Coefficient  Atom+Function         Bfn.  Coefficient  Atom+Function  
  ----- ------------  ---------------      ----- ------------  ---------------
    26      1.635666  2 O  py                23     -1.121907  2 O  py         
    29     -0.931378  2 O  py                25      0.440914  2 O  px         
    27     -0.393883  2 O  pz                14      0.350520  1 C  py         
    22     -0.302424  2 O  px                24      0.270165  2 O  pz         
    28     -0.251065  2 O  px                30      0.224283  2 O  pz         
 
 Vector   33  Occ=0.000000D+00  E= 1.952947D+00
              MO Center= -1.8D-01, -1.0D-01, -6.3D-01, r^2= 1.1D+00
   Bfn.  Coefficient  Atom+Function         Bfn.  Coefficient  Atom+Function  
  ----- ------------  ---------------      ----- ------------  ---------------
    27      1.683009  2 O  pz                13     -1.211197  1 C  px         
    30     -1.139389  2 O  pz                24     -1.092873  2 O  pz         
    33      0.904433  3 H  s                  4     -0.840221  1 C  s          
     5      0.788152  1 C  s                 36     -0.629375  4 H  s          
    38      0.509506  5 H  s                 26      0.482920  2 O  py         
 
 Vector   34  Occ=0.000000D+00  E= 2.241039D+00
              MO Center= -2.8D-01, -7.2D-02, -6.2D-01, r^2= 1.2D+00
   Bfn.  Coefficient  Atom+Function         Bfn.  Coefficient  Atom+Function  
  ----- ------------  ---------------      ----- ------------  ---------------
    28     -1.845107  2 O  px                25      1.748003  2 O  px         
    38     -1.287393  5 H  s                 36      1.070882  4 H  s          
    13      1.027382  1 C  px                22     -1.020957  2 O  px         
    37      0.961414  5 H  s                 15     -0.881678  1 C  pz         
    33     -0.647161  3 H  s                 27      0.516878  2 O  pz         
 
 Vector   35  Occ=0.000000D+00  E= 3.783413D+00
              MO Center= -1.9D-01, -7.9D-02, -5.4D-01, r^2= 8.0D-01
   Bfn.  Coefficient  Atom+Function         Bfn.  Coefficient  Atom+Function  
  ----- ------------  ---------------      ----- ------------  ---------------
    20      4.696088  2 O  s                 19     -3.793500  2 O  s          
    21     -3.225677  2 O  s                  6      1.318382  1 C  s          
    18      0.804248  2 O  s                 30     -0.577372  2 O  pz         
    38      0.498831  5 H  s                 15     -0.380877  1 C  pz         
    13     -0.244714  1 C  px                37     -0.231561  5 H  s          
 
 Vector   36  Occ=0.000000D+00  E= 1.073936D+01
              MO Center=  2.9D-01,  6.0D-02,  5.7D-01, r^2= 3.3D-01
   Bfn.  Coefficient  Atom+Function         Bfn.  Coefficient  Atom+Function  
  ----- ------------  ---------------      ----- ------------  ---------------
     3      3.235948  1 C  s                  4     -3.197982  1 C  s          
     5      2.590361  1 C  s                  2     -1.708575  1 C  s          
     6     -1.155187  1 C  s                 33      0.348373  3 H  s          
    36      0.327697  4 H  s                  1     -0.185157  1 C  s          
    21     -0.150035  2 O  s                 15     -0.135784  1 C  pz         
 
 Vector   37  Occ=0.000000D+00  E= 2.102466D+01
              MO Center= -2.0D-01, -8.8D-02, -5.9D-01, r^2= 1.9D-01
   Bfn.  Coefficient  Atom+Function         Bfn.  Coefficient  Atom+Function  
  ----- ------------  ---------------      ----- ------------  ---------------
    18      3.302056  2 O  s                 19     -3.138606  2 O  s          
    20      2.403899  2 O  s                 17     -1.737773  2 O  s          
    21     -1.321098  2 O  s                  6      0.506160  1 C  s          
    30     -0.230755  2 O  pz                16     -0.180193  2 O  s          
    15     -0.166191  1 C  pz                38      0.144052  5 H  s          
 
 Vector   38  Occ=0.000000D+00  E= 6.166086D+01
              MO Center=  2.9D-01,  6.0D-02,  5.7D-01, r^2= 7.4D-02
   Bfn.  Coefficient  Atom+Function         Bfn.  Coefficient  Atom+Function  
  ----- ------------  ---------------      ----- ------------  ---------------
     2      2.933877  1 C  s                  3     -2.214301  1 C  s          
     1     -1.740933  1 C  s                  4      1.416606  1 C  s          
     5     -1.084064  1 C  s                  6      0.486687  1 C  s          
    33     -0.146226  3 H  s                 36     -0.136672  4 H  s          
    21      0.056463  2 O  s                 15      0.054800  1 C  pz         
 
 Vector   39  Occ=0.000000D+00  E= 1.169444D+02
              MO Center= -2.0D-01, -8.9D-02, -5.9D-01, r^2= 4.2D-02
   Bfn.  Coefficient  Atom+Function         Bfn.  Coefficient  Atom+Function  
  ----- ------------  ---------------      ----- ------------  ---------------
    17      2.963486  2 O  s                 18     -2.258975  2 O  s          
    16     -1.755395  2 O  s                 19      1.397088  2 O  s          
    20     -1.008853  2 O  s                 21      0.555699  2 O  s          
     6     -0.216516  1 C  s                 30      0.097720  2 O  pz         
    15      0.071293  1 C  pz                38     -0.059024  5 H  s          
 

   alpha - beta orbital overlaps 
   ----------------------------- 


   alpha      1      2      3      4      5      6      7      8      9     10
    beta      1      2      3      4      5      6      7      8      9     10
 overlap   1.000  1.000  1.000  1.000  0.974  0.966  0.999  0.989  0.999  0.999


   alpha     11     12     13     14     15     16     17     18     19     20
    beta     11     12     13     14     15     16     17     18     19     20
 overlap   0.998  0.996  0.995  1.000  0.987  0.958  0.955  0.998  1.000  0.996


   alpha     21     22     23     24     25     26     27     28     29     30
    beta     21     22     23     24     25     26     27     28     29     30
 overlap   0.996  0.999  0.999  1.000  1.000  0.999  0.999  0.998  0.996  0.999


   alpha     31     32     33     34     35     36     37     38     39
    beta     31     32     33     34     35     36     37     38     39
 overlap   0.998  1.000  0.998  0.998  1.000  1.000  1.000  1.000  1.000

     --------------------------
     Expectation value of S2:  
     --------------------------
      <S2> =      0.7527 (Exact =     0.7500)
 

 center of mass
 --------------
 x =   0.00757231 y =  -0.02122731 z =  -0.07967585

 moments of inertia (a.u.)
 ------------------
          46.456789540918           0.227797875686         -18.849727666615
           0.227797875686          62.692803912925          -5.757232539434
         -18.849727666615          -5.757232539434          19.131585132941
 
     Multipole analysis of the density
     ---------------------------------
 
     L   x y z        total         alpha         beta         nuclear
     -   - - -        -----         -----         ----         -------
     0   0 0 0      2.000000     -8.000000     -7.000000     17.000000
 
     1   1 0 0     -0.323059     -0.229248     -0.093811      0.000000
     1   0 1 0      0.318119      0.190749      0.127370     -0.000000
     1   0 0 1      0.959439      0.535508      0.423930      0.000000
 
     2   2 0 0     -0.891536     -8.565818     -6.960575     14.634857
     2   1 1 0     -0.958108      0.207476     -0.065864     -1.099720
     2   1 0 1      2.673982     -4.724885     -4.416955     11.815821
     2   0 2 0     -6.435145     -4.060858     -3.527677      1.153390
     2   0 1 1      0.586007     -1.783923     -1.188712      3.558641
     2   0 0 2     -1.407712    -16.272635    -13.140025     28.004948
 

 Task  times  cpu:        0.7s     wall:        0.9s
 
 
                                NWChem Input Module
                                -------------------
 
 
 Summary of allocated global arrays
-----------------------------------
  No active global arrays



                         GA Statistics for process    0
                         ------------------------------

       create   destroy   get      put      acc     scatter   gather  read&inc
calls:  310      310     3964      667     2528        0        0      328     
number of processes/call 1.15e+01 1.31e+01 8.64e+00 0.00e+00 0.00e+00
bytes total:             8.67e+06 1.41e+06 4.18e+06 0.00e+00 0.00e+00 2.62e+03
bytes remote:            6.70e+06 8.21e+05 3.33e+06 0.00e+00 0.00e+00 0.00e+00
Max memory consumed for GA by this process: 135368 bytes
 
 
 
                                     CITATION
                                     --------
                Please cite the following reference when publishing
                           results obtained with NWChem:
 
          E. Apr, E. J. Bylaska, W. A. de Jong, N. Govind, K. Kowalski,
       T. P. Straatsma, M. Valiev, H. J. J. van Dam, Y. Alexeev, J. Anchell,
       V. Anisimov, F. W. Aquino, R. Atta-Fynn, J. Autschbach, N. P. Bauman,
     J. C. Becca, D. E. Bernholdt, K. Bhaskaran-Nair, S. Bogatko, P. Borowski,
        J. Boschen, J. Brabec, A. Bruner, E. Caut, Y. Chen, G. N. Chuev,
      C. J. Cramer, J. Daily, M. J. O. Deegan, T. H. Dunning Jr., M. Dupuis,
   K. G. Dyall, G. I. Fann, S. A. Fischer, A. Fonari, H. Frchtl, L. Gagliardi,
      J. Garza, N. Gawande, S. Ghosh, K. Glaesemann, A. W. Gtz, J. Hammond,
       V. Helms, E. D. Hermes, K. Hirao, S. Hirata, M. Jacquelin, L. Jensen,
   B. G. Johnson, H. Jnsson, R. A. Kendall, M. Klemm, R. Kobayashi, V. Konkov,
      S. Krishnamoorthy, M. Krishnan, Z. Lin, R. D. Lins, R. J. Littlefield,
      A. J. Logsdail, K. Lopata, W. Ma, A. V. Marenich, J. Martin del Campo,
   D. Mejia-Rodriguez, J. E. Moore, J. M. Mullin, T. Nakajima, D. R. Nascimento,
    J. A. Nichols, P. J. Nichols, J. Nieplocha, A. Otero-de-la-Roza, B. Palmer,
    A. Panyala, T. Pirojsirikul, B. Peng, R. Peverati, J. Pittner, L. Pollack,
   R. M. Richard, P. Sadayappan, G. C. Schatz, W. A. Shelton, D. W. Silverstein,
   D. M. A. Smith, T. A. Soares, D. Song, M. Swart, H. L. Taylor, G. S. Thomas,
            V. Tipparaju, D. G. Truhlar, K. Tsemekhman, T. Van Voorhis,
     . Vzquez-Mayagoitia, P. Verma, O. Villa, A. Vishnu, K. D. Vogiatzis,
        D. Wang, J. H. Weare, M. J. Williamson, T. L. Windus, K. Woliski,
        A. T. Wong, Q. Wu, C. Yang, Q. Yu, M. Zacharias, Z. Zhang, Y. Zhao,
                                and R. J. Harrison
                        "NWChem: Past, present, and future
                         J. Chem. Phys. 152, 184102 (2020)
                               doi:10.1063/5.0004997
 
                                      AUTHORS
                                      -------
     E. Apra, E. J. Bylaska, N. Govind, K. Kowalski, M. Valiev, W. A. de Jong,
      T. P. Straatsma, H. J. J. van Dam, D. Wang, T. L. Windus, N. P. Bauman,
       A. Panyala, J. Hammond, J. Autschbach, K. Bhaskaran-Nair, J. Brabec,
    K. Lopata, S. A. Fischer, S. Krishnamoorthy, M. Jacquelin, W. Ma, M. Klemm,
       O. Villa, Y. Chen, V. Anisimov, F. Aquino, S. Hirata, M. T. Hackler,
           Eric Hermes, L. Jensen, J. E. Moore, J. C. Becca, V. Konjkov,
            D. Mejia-Rodriguez, T. Risthaus, M. Malagoli, A. Marenich,
   A. Otero-de-la-Roza, J. Mullin, P. Nichols, R. Peverati, J. Pittner, Y. Zhao,
        P.-D. Fan, A. Fonari, M. J. Williamson, R. J. Harrison, J. R. Rehr,
      M. Dupuis, D. Silverstein, D. M. A. Smith, J. Nieplocha, V. Tipparaju,
      M. Krishnan, B. E. Van Kuiken, A. Vazquez-Mayagoitia, M. Swart, Q. Wu,
   T. Van Voorhis, A. A. Auer, M. Nooijen, L. D. Crosby, E. Brown, G. Cisneros,
     G. I. Fann, H. Fruchtl, J. Garza, K. Hirao, R. A. Kendall, J. A. Nichols,
       K. Tsemekhman, K. Wolinski, J. Anchell, D. E. Bernholdt, P. Borowski,
       T. Clark, D. Clerc, H. Dachsel, M. J. O. Deegan, K. Dyall, D. Elwood,
      E. Glendening, M. Gutowski, A. C. Hess, J. Jaffe, B. G. Johnson, J. Ju,
        R. Kobayashi, R. Kutteh, Z. Lin, R. Littlefield, X. Long, B. Meng,
      T. Nakajima, S. Niu, L. Pollack, M. Rosing, K. Glaesemann, G. Sandrone,
      M. Stave, H. Taylor, G. Thomas, J. H. van Lenthe, A. T. Wong, Z. Zhang.

 Total times  cpu:        0.7s     wall:        1.0s
