 
             Northwest Computational Chemistry Package (NWChem) 7.0.0
             --------------------------------------------------------
 
 
                    Environmental Molecular Sciences Laboratory
                       Pacific Northwest National Laboratory
                                Richland, WA 99352
 
                              Copyright (c) 1994-2020
                       Pacific Northwest National Laboratory
                            Battelle Memorial Institute
 
             NWChem is an open-source computational chemistry package
                        distributed under the terms of the
                      Educational Community License (ECL) 2.0
             A copy of the license is included with this distribution
                              in the LICENSE.TXT file
 
                                  ACKNOWLEDGMENT
                                  --------------

            This software and its documentation were developed at the
            EMSL at Pacific Northwest National Laboratory, a multiprogram
            national laboratory, operated for the U.S. Department of Energy
            by Battelle under Contract Number DE-AC05-76RL01830. Support
            for this work was provided by the Department of Energy Office
            of Biological and Environmental Research, Office of Basic
            Energy Sciences, and the Office of Advanced Scientific Computing.


                                NWChem Input Module
                                -------------------
 
 
 Summary of "ao basis" -> "" (spherical)
 ------------------------------------------------------------------------------
       Tag                 Description            Shells   Functions and Types
 ---------------- ------------------------------  ------  ---------------------
 *                        ahlrichs_vtz                on all atoms 



 Scaling coordinates for geometry "geometry" by  1.889725989
 (inverse scale =  0.529177249)

 
 
                             Geometry "geometry" -> ""
                             -------------------------
 
 Output coordinates in angstroms (scale by  1.889725989 to convert to a.u.)
 
  No.       Tag          Charge          X              Y              Z
 ---- ---------------- ---------- -------------- -------------- --------------
    1 C                    6.0000     0.74532643    -0.51756648    -1.33648511
    2 C                    6.0000     1.95895077    -0.72604011    -0.80412369
    3 H                    1.0000     2.17521108    -0.53823327     0.24927633
    4 H                    1.0000     2.78871660    -1.09589824    -1.40876349
    5 C                    6.0000    -0.47908100    -0.01158466    -0.61322382
    6 H                    1.0000     0.59551869    -0.72667429    -2.40303135
    7 C                    6.0000    -0.30735245     0.29084909     0.88151995
    8 H                    1.0000    -0.84085596     0.89968556    -1.12794861
    9 H                    1.0000    -1.29442023    -0.74972231    -0.74204456
   10 H                    1.0000     0.48989420     1.04189571     1.01365714
   11 H                    1.0000     0.03400582    -0.61993885     1.40216628
   12 C                    6.0000    -1.60479910     0.79792512     1.52821767
   13 H                    1.0000    -1.95219255     1.72521400     1.04588270
   14 H                    1.0000    -1.46335538     1.00940051     2.59837978
   15 H                    1.0000    -2.41079010     0.05277351     1.43699589
 
      Atomic Mass 
      ----------- 
 
      C                 12.000000
      H                  1.007825
 

 Effective nuclear repulsion energy (a.u.)     170.9685503550

            Nuclear Dipole moment (a.u.) 
            ----------------------------
        X                 Y               Z
 ---------------- ---------------- ----------------
    -0.0000000000    -0.0000000000    -0.0000000000
 
 
            XYZ format geometry
            -------------------
    15
 geometry
 C                     0.74532643    -0.51756648    -1.33648511
 C                     1.95895077    -0.72604011    -0.80412369
 H                     2.17521108    -0.53823327     0.24927633
 H                     2.78871660    -1.09589824    -1.40876349
 C                    -0.47908100    -0.01158466    -0.61322382
 H                     0.59551869    -0.72667429    -2.40303135
 C                    -0.30735245     0.29084909     0.88151995
 H                    -0.84085596     0.89968556    -1.12794861
 H                    -1.29442023    -0.74972231    -0.74204456
 H                     0.48989420     1.04189571     1.01365714
 H                     0.03400582    -0.61993885     1.40216628
 C                    -1.60479910     0.79792512     1.52821767
 H                    -1.95219255     1.72521400     1.04588270
 H                    -1.46335538     1.00940051     2.59837978
 H                    -2.41079010     0.05277351     1.43699589
 
 ==============================================================================
                                internuclear distances
 ------------------------------------------------------------------------------
       center one      |      center two      | atomic units |  angstroms
 ------------------------------------------------------------------------------
    2 C                |   1 C                |     2.53516  |     1.34155
    3 H                |   2 C                |     2.06291  |     1.09165
    4 H                |   2 C                |     2.06222  |     1.09128
    5 C                |   1 C                |     2.85236  |     1.50940
    6 H                |   1 C                |     2.07327  |     1.09713
    7 C                |   5 C                |     2.90011  |     1.53467
    8 H                |   5 C                |     2.09260  |     1.10736
    9 H                |   5 C                |     2.09258  |     1.10735
   10 H                |   7 C                |     2.08482  |     1.10324
   11 H                |   7 C                |     2.08482  |     1.10324
   12 C                |   7 C                |     2.90226  |     1.53581
   13 H                |  12 C                |     2.08144  |     1.10145
   14 H                |  12 C                |     2.07868  |     1.09999
   15 H                |  12 C                |     2.08144  |     1.10145
 ------------------------------------------------------------------------------
                         number of included internuclear distances:         14
 ==============================================================================



 ==============================================================================
                                 internuclear angles
 ------------------------------------------------------------------------------
        center 1       |       center 2       |       center 3       |  degrees
 ------------------------------------------------------------------------------
    2 C                |   1 C                |   5 C                |   126.57
    2 C                |   1 C                |   6 H                |   118.66
    5 C                |   1 C                |   6 H                |   114.77
    1 C                |   2 C                |   3 H                |   122.37
    1 C                |   2 C                |   4 H                |   121.38
    3 H                |   2 C                |   4 H                |   116.25
    1 C                |   5 C                |   7 C                |   116.23
    1 C                |   5 C                |   8 H                |   108.55
    1 C                |   5 C                |   9 H                |   108.55
    7 C                |   5 C                |   8 H                |   109.09
    7 C                |   5 C                |   9 H                |   109.09
    8 H                |   5 C                |   9 H                |   104.71
    5 C                |   7 C                |  10 H                |   109.37
    5 C                |   7 C                |  11 H                |   109.36
    5 C                |   7 C                |  12 C                |   112.37
   10 H                |   7 C                |  11 H                |   106.37
   10 H                |   7 C                |  12 C                |   109.59
   11 H                |   7 C                |  12 C                |   109.59
    7 C                |  12 C                |  13 H                |   111.10
    7 C                |  12 C                |  14 H                |   111.38
    7 C                |  12 C                |  15 H                |   111.10
   13 H                |  12 C                |  14 H                |   107.74
   13 H                |  12 C                |  15 H                |   107.61
   14 H                |  12 C                |  15 H                |   107.74
 ------------------------------------------------------------------------------
                            number of included internuclear angles:         24
 ==============================================================================



                              Aldehyde and Ketone set
                              -----------------------
 
                                 NWChem DFT Module
                                 -----------------
 
 
                              Aldehyde and Ketone set
 
 
                      Basis "ao basis" -> "ao basis" (spherical)
                      -----
  C (Carbon)
  ----------
            Exponent  Coefficients 
       -------------- ---------------------------------------------------------
  1 S  8.50603840E+03  0.000534
  1 S  1.27573290E+03  0.004125
  1 S  2.90311870E+02  0.021171
  1 S  8.20562000E+01  0.082418
  1 S  2.64796410E+01  0.240129
 
  2 S  9.24145850E+00  1.000000
 
  3 S  3.36435300E+00  1.000000
 
  4 S  8.71741640E-01  1.000000
 
  5 S  3.63523520E-01  1.000000
 
  6 S  1.28731350E-01  1.000000
 
  7 P  3.47094960E+01  0.005330
  7 P  7.95908830E+00  0.035866
  7 P  2.37869720E+00  0.142003
  7 P  8.15400650E-01  0.342031
 
  8 P  2.89537850E-01  1.000000
 
  9 P  1.00847540E-01  1.000000
 
  H (Hydrogen)
  ------------
            Exponent  Coefficients 
       -------------- ---------------------------------------------------------
  1 S  3.40613410E+01  0.006025
  1 S  5.12357460E+00  0.045021
  1 S  1.16466260E+00  0.201897
 
  2 S  3.27230410E-01  1.000000
 
  3 S  1.03072410E-01  1.000000
 


 Summary of "ao basis" -> "ao basis" (spherical)
 ------------------------------------------------------------------------------
       Tag                 Description            Shells   Functions and Types
 ---------------- ------------------------------  ------  ---------------------
 C                        ahlrichs vtz               9       15   6s3p
 H                        ahlrichs vtz               3        3   3s




 Summary of "ao basis" -> "ao basis" (spherical)
 ------------------------------------------------------------------------------
       Tag                 Description            Shells   Functions and Types
 ---------------- ------------------------------  ------  ---------------------
 C                        ahlrichs vtz               9       15   6s3p
 H                        ahlrichs vtz               3        3   3s


  Caching 1-el integrals 
 
            General Information
            -------------------
          SCF calculation type: DFT
          Wavefunction type:  spin polarized.
          No. of atoms     :    15
          No. of electrons :    39
           Alpha electrons :    20
            Beta electrons :    19
          Charge           :     1
          Spin multiplicity:     2
          Use of symmetry is: off; symmetry adaption is: off
          Maximum number of iterations: 999
          This is a Direct SCF calculation.
          AO basis - number of functions:   105
                     number of shells:    75
          Convergence on energy requested:  1.00D-08
          Convergence on density requested:  1.00D-07
          Convergence on gradient requested:  1.00D-06
 
              XC Information
              --------------
                        PBE96 Method XC Functional
          PerdewBurkeErnzerhof Exchange Functional  1.000          
            Perdew 1991 LDA Correlation Functional  1.000 local    
           PerdewBurkeErnz. Correlation Functional  1.000 non-local
 
             Grid Information
             ----------------
          Grid used for XC integration:  fine      
          Radial quadrature: Mura-Knowles        
          Angular quadrature: Lebedev. 
          Tag              B.-S. Rad. Rad. Pts. Rad. Cut. Ang. Pts.
          ---              ---------- --------- --------- ---------
          C                   0.70       70          14.0       590
          H                   0.35       60          15.0       590
          Grid pruning is: on 
          Number of quadrature shells:   950
          Spatial weights used:  Erf1
 
          Convergence Information
          -----------------------
          Convergence aids based upon iterative change in 
          total energy or number of iterations. 
          Levelshifting, if invoked, occurs when the 
          HOMO/LUMO gap drops below (HL_TOL):  1.00D-02
          DIIS, if invoked, will attempt to extrapolate 
          using up to (NFOCK): 10 stored Fock matrices.

                    Damping( 0%)  Levelshifting(0.5)       DIIS
                  --------------- ------------------- ---------------
          dE  on:    start            ASAP                start   
          dE off:    2 iters        999 iters           999 iters 

 
      Screening Tolerance Information
      -------------------------------
          Density screening/tol_rho:  1.00D-12
          AO Gaussian exp screening on grid/accAOfunc:  18
          CD Gaussian exp screening on grid/accCDfunc:  20
          XC Gaussian exp screening on grid/accXCfunc:  20
          Schwarz screening/accCoul:  1.00D-12

      Dispersion Parameters
      ---------------------

           DFT-D3BJ Model   
          s6 scale factor  :        1.000000000000
          s8 scale factor  :        0.787500000000
          a1 parameter     :        0.428900000000
          a2 parameter     :        4.440700000000
              vdW contrib  :       -0.010809053189


 Forcing the number of linearly dependent vectors to be  0
 
      Superposition of Atomic Density Guess
      -------------------------------------
 
 Sum of atomic energies:        -193.35381764
   Time after variat. SCF:      0.1
   Time prior to 1st pass:      0.1

 Grid_pts file          = ./15_nButCHCH2.gridpts.00
 Record size in doubles =  12289        No. of grid_pts per rec  =   3070
 Max. records in memory =     15        Max. recs in file   =  67550051

 Grid integrated density:      40.000000311997
 Requested integration accuracy:   0.10E-06

           Memory utilization after 1st SCF pass: 
           Heap Space remaining (MW):        0.00                 234
          Stack Space remaining (MW):      288.36           288356836

   convergence    iter        energy       DeltaE   RMS-Dens  Diis-err    time
 ---------------- ----- ----------------- --------- --------- ---------  ------
 d= 0,ls=0.0,diis     1   -196.7814861578 -3.68D+02  1.38D-02  1.48D+01     0.5
                                                     1.33D-02  1.33D+01
 Grid integrated density:      38.999995748146
 Requested integration accuracy:   0.10E-06
 d= 0,ls=0.0,diis     2   -195.7730999673  1.01D+00  7.85D-03  2.87D-01     1.0
                                                     8.63D-03  2.75D-01
 d= 0,ls=0.0,diis     3   -195.2090818947  5.64D-01  6.27D-03  1.07D+00     1.5
                                                     7.64D-03  9.36D-01
 d= 0,ls=0.0,diis     4   -195.8659524100 -6.57D-01  1.79D-03  9.04D-02     2.0
                                                     2.65D-03  7.99D-02
 d= 0,ls=0.0,diis     5   -195.9195077483 -5.36D-02  8.56D-04  6.15D-03     2.4
                                                     1.57D-03  4.91D-03
 d= 0,ls=0.5,diis     6   -195.9165148602  2.99D-03  2.06D-04  7.66D-03     2.9
                                                     1.88D-04  7.77D-03
 d= 0,ls=0.5,diis     7   -195.9190941420 -2.58D-03  1.96D-04  3.24D-03     3.4
                                                     1.74D-04  3.33D-03
 d= 0,ls=0.5,diis     8   -195.9205486990 -1.45D-03  1.41D-04  1.31D-03     3.8
                                                     1.31D-04  1.44D-03
 d= 0,ls=0.5,diis     9   -195.9213292708 -7.81D-04  7.99D-05  4.22D-04     4.2
                                                     9.02D-05  5.68D-04
 d= 0,ls=0.5,diis    10   -195.9216999481 -3.71D-04  3.84D-05  1.24D-04     4.6
                                                     6.66D-05  2.43D-04
 d= 0,ls=0.5,diis    11   -195.9218909014 -1.91D-04  2.66D-05  4.36D-05     5.0
                                                     5.63D-05  1.35D-04
 d= 0,ls=0.5,diis    12   -195.9220047021 -1.14D-04  2.48D-05  2.99D-05     5.5
                                                     5.11D-05  1.05D-04
 d= 0,ls=0.5,diis    13   -195.9220914976 -8.68D-05  2.44D-05  2.84D-05     5.9
                                                     4.80D-05  9.19D-05
 d= 0,ls=0.5,diis    14   -195.9221635813 -7.21D-05  2.35D-05  3.04D-05     6.3
                                                     4.54D-05  8.55D-05
 d= 0,ls=0.5,diis    15   -195.9222260618 -6.25D-05  2.04D-05  3.46D-05     6.7
                                                     4.40D-05  8.29D-05
 d= 0,ls=0.5,diis    16   -195.9222849970 -5.89D-05  1.07D-05  3.55D-05     7.2
                                                     4.16D-05  7.89D-05
 d= 0,ls=0.5,diis    17   -195.9223461000 -6.11D-05  2.59D-05  2.74D-05     7.6
                                                     4.16D-05  6.66D-05
 d= 0,ls=0.5,diis    18   -195.9223892288 -4.31D-05  9.60D-06  3.57D-05     8.0
                                                     3.82D-05  7.29D-05
 d= 0,ls=0.5,diis    19   -195.9224417788 -5.25D-05  2.14D-05  2.87D-05     8.4
                                                     3.85D-05  6.38D-05
 d= 0,ls=0.5,diis    20   -195.9224800414 -3.83D-05  2.56D-05  3.71D-05     8.9
                                                     3.79D-05  7.08D-05
 d= 0,ls=0.5,diis    21   -195.9225093832 -2.93D-05  1.41D-05  5.24D-05     9.3
                                                     3.41D-05  8.51D-05
 d= 0,ls=0.5,diis    22   -195.9225470820 -3.77D-05  1.21D-05  5.30D-05     9.7
                                                     3.31D-05  8.45D-05
 d= 0,ls=0.5,diis    23   -195.9225839310 -3.68D-05  1.39D-05  5.30D-05    10.1
                                                     3.22D-05  8.33D-05
 d= 0,ls=0.5,diis    24   -195.9226161279 -3.22D-05  2.09D-05  5.67D-05    10.6
                                                     3.23D-05  8.59D-05
 d= 0,ls=0.5,diis    25   -195.9226365903 -2.05D-05  8.16D-06  7.36D-05    11.0
                                                     2.91D-05  1.00D-04
 d= 0,ls=0.5,diis    26   -195.9226714416 -3.49D-05  1.92D-05  6.82D-05    11.4
                                                     2.97D-05  9.32D-05
 d= 0,ls=0.5,diis    27   -195.9226882422 -1.68D-05  9.72D-06  8.55D-05    11.8
                                                     2.68D-05  1.08D-04
 d= 0,ls=0.5,diis    28   -195.9227177568 -2.95D-05  1.63D-05  8.09D-05    12.3
                                                     3.14D-05  1.02D-04
 d= 0,ls=0.5,diis    29   -195.9227704273 -5.27D-05  3.84D-05  4.58D-05    12.7
                                                     3.82D-05  6.89D-05
 d= 0,ls=0.5,diis    30   -195.9227613992  9.03D-06  1.02D-05  9.29D-05    13.1
                                                     2.42D-05  1.12D-04
 d= 0,ls=0.5,diis    31   -195.9227855553 -2.42D-05  1.19D-05  8.76D-05    13.5
                                                     2.72D-05  1.07D-04
 d= 0,ls=0.5,diis    32   -195.9228304350 -4.49D-05  3.67D-05  5.62D-05    13.9
                                                     3.47D-05  7.63D-05
 d= 0,ls=0.5,diis    33   -195.9228118394  1.86D-05  3.06D-05  1.11D-04    14.4
                                                     2.91D-05  1.27D-04
 d= 0,ls=0.5,diis    34   -195.9227890609  2.28D-05  3.31D-05  1.65D-04    14.8
                                                     2.90D-05  1.77D-04
 d= 0,ls=0.5,diis    35   -195.9227466430  4.24D-05  2.49D-05  2.44D-04    15.2
                                                     2.63D-05  2.48D-04
 d= 0,ls=0.5,diis    36   -195.9228089043 -6.23D-05  1.89D-05  1.65D-04    15.6
                                                     2.38D-05  1.80D-04
 d= 0,ls=0.5,diis    37   -195.9228594877 -5.06D-05  1.55D-05  1.14D-04    16.1
                                                     1.98D-05  1.32D-04
 d= 0,ls=0.5,diis    38   -195.9228637811 -4.29D-06  9.61D-06  1.26D-04    16.5
                                                     1.59D-05  1.43D-04
 d= 0,ls=0.5,diis    39   -195.9228700015 -6.22D-06  3.42D-06  1.34D-04    16.9
                                                     1.45D-05  1.50D-04
 d= 0,ls=0.5,diis    40   -195.9228893479 -1.93D-05  1.94D-05  1.22D-04    17.3
                                                     2.42D-05  1.40D-04
 d= 0,ls=0.5,diis    41   -195.9229357810 -4.64D-05  8.26D-06  7.45D-05    17.8
                                                     1.62D-05  9.40D-05
 d= 0,ls=0.5,diis    42   -195.9229473460 -1.16D-05  6.66D-06  7.60D-05    18.2
                                                     1.75D-05  9.29D-05
 d= 0,ls=0.5,diis    43   -195.9229708582 -2.35D-05  9.81D-06  6.21D-05    18.6
                                                     1.94D-05  7.89D-05
 d= 0,ls=0.5,diis    44   -195.9229983550 -2.75D-05  7.24D-06  4.17D-05    19.0
                                                     1.92D-05  5.83D-05
 d= 0,ls=0.5,diis    45   -195.9230210766 -2.27D-05  2.81D-05  2.98D-05    19.5
                                                     2.58D-05  4.46D-05
 d= 0,ls=0.5,diis    46   -195.9230105201  1.06D-05  1.01D-05  5.83D-05    19.9
                                                     1.44D-05  7.15D-05
 d= 0,ls=0.5,diis    47   -195.9230143996 -3.88D-06  3.05D-05  6.39D-05    20.3
                                                     2.60D-05  7.66D-05
 d= 0,ls=0.5,diis    48   -195.9229874098  2.70D-05  2.28D-05  1.10D-04    20.7
                                                     2.38D-05  1.20D-04
 d= 0,ls=0.5,diis    49   -195.9230265970 -3.92D-05  3.03D-06  6.33D-05    21.2
                                                     1.19D-05  7.48D-05
 d= 0,ls=0.5,diis    50   -195.9230388935 -1.23D-05  1.46D-05  5.68D-05    21.6
                                                     1.45D-05  6.76D-05
 d= 0,ls=0.5,diis    51   -195.9230336930  5.20D-06  4.77D-06  7.34D-05    22.0
                                                     1.09D-05  8.16D-05
 d= 0,ls=0.5,diis    52   -195.9230472267 -1.35D-05  1.10D-05  6.22D-05    22.4
                                                     1.53D-05  6.97D-05
 d= 0,ls=0.5,diis    53   -195.9230674847 -2.03D-05  1.40D-05  4.39D-05    22.8
                                                     1.44D-05  5.21D-05
 d= 0,ls=0.5,diis    54   -195.9230641539  3.33D-06  2.40D-05  5.66D-05    23.3
                                                     2.49D-05  6.34D-05
 d= 0,ls=0.5,diis    55   -195.9230946132 -3.05D-05  1.16D-05  2.33D-05    23.7
                                                     1.34D-05  3.13D-05
 d= 0,ls=0.5,diis    56   -195.9230956585 -1.05D-06  9.48D-06  3.09D-05    24.1
                                                     1.19D-05  3.74D-05
 d= 0,ls=0.5,diis    57   -195.9230963258 -6.67D-07  4.48D-06  3.70D-05    24.5
                                                     9.12D-06  4.31D-05
 d= 0,ls=0.5,diis    58   -195.9231007116 -4.39D-06  2.82D-06  3.68D-05    25.0
                                                     8.57D-06  4.26D-05
 d= 0,ls=0.5,diis    59   -195.9231056341 -4.92D-06  2.22D-06  3.56D-05    25.4
                                                     8.26D-06  4.12D-05
 d= 0,ls=0.5,diis    60   -195.9231115388 -5.90D-06  1.75D-06  3.26D-05    25.8
                                                     8.23D-06  3.82D-05
 d= 0,ls=0.5,diis    61   -195.9231176783 -6.14D-06  5.75D-06  2.94D-05    26.2
                                                     8.62D-06  3.50D-05
 d= 0,ls=0.5,diis    62   -195.9231193289 -1.65D-06  7.62D-06  3.14D-05    26.7
                                                     8.86D-06  3.69D-05
 d= 0,ls=0.5,diis    63   -195.9231188195  5.09D-07  3.56D-06  3.58D-05    27.1
                                                     7.59D-06  4.13D-05
 d= 0,ls=0.5,diis    64   -195.9231262232 -7.40D-06  4.79D-06  2.91D-05    27.5
                                                     8.58D-06  3.49D-05
 d= 0,ls=0.5,diis    65   -195.9231342193 -8.00D-06  6.71D-06  2.23D-05    27.9
                                                     1.03D-05  2.78D-05
 d= 0,ls=0.5,diis    66   -195.9231430243 -8.81D-06  4.48D-06  1.50D-05    28.4
                                                     7.92D-06  2.05D-05
 d= 0,ls=0.5,diis    67   -195.9231454615 -2.44D-06  4.76D-06  1.59D-05    28.8
                                                     9.24D-06  2.09D-05
 d= 0,ls=0.5,diis    68   -195.9231518082 -6.35D-06  4.07D-06  1.15D-05    29.2
                                                     7.58D-06  1.63D-05
 d= 0,ls=0.5,diis    69   -195.9231540706 -2.26D-06  2.90D-06  1.21D-05    29.6
                                                     6.92D-06  1.66D-05
 d= 0,ls=0.5,diis    70   -195.9231566746 -2.60D-06  1.61D-06  1.17D-05    30.1
                                                     6.52D-06  1.59D-05
 d= 0,ls=0.5,diis    71   -195.9231596081 -2.93D-06  5.02D-06  1.08D-05    30.5
                                                     6.75D-06  1.47D-05
 d= 0,ls=0.5,diis    72   -195.9231605544 -9.46D-07  1.66D-06  1.21D-05    30.9
                                                     6.03D-06  1.58D-05
 d= 0,ls=0.5,diis    73   -195.9231634579 -2.90D-06  1.88D-06  1.07D-05    31.3
                                                     5.99D-06  1.41D-05
 d= 0,ls=0.5,diis    74   -195.9231662487 -2.79D-06  4.96D-06  9.37D-06    31.8
                                                     6.15D-06  1.24D-05
 d= 0,ls=0.5,diis    75   -195.9231669912 -7.43D-07  1.77D-06  1.05D-05    32.2
                                                     4.98D-06  1.30D-05
 d= 0,ls=0.5,diis    76   -195.9231687772 -1.79D-06  2.04D-06  1.01D-05    32.6
                                                     4.67D-06  1.23D-05
 d= 0,ls=0.5,diis    77   -195.9231702322 -1.45D-06  1.44D-06  9.90D-06    33.0
                                                     4.89D-06  1.18D-05
 d= 0,ls=0.5,diis    78   -195.9231725689 -2.34D-06  3.40D-06  8.42D-06    33.4
                                                     4.85D-06  1.02D-05
 d= 0,ls=0.5,diis    79   -195.9231731821 -6.13D-07  1.08D-05  9.09D-06    33.9
                                                     9.25D-06  1.08D-05
 d= 0,ls=0.5,diis    80   -195.9231696298  3.55D-06  3.29D-06  1.51D-05    34.3
                                                     4.49D-06  1.63D-05
 d= 0,ls=0.5,diis    81   -195.9231721458 -2.52D-06  2.00D-06  1.23D-05    34.7
                                                     3.73D-06  1.36D-05
 d= 0,ls=0.5,diis    82   -195.9231742492 -2.10D-06  2.57D-06  1.04D-05    35.1
                                                     4.22D-06  1.17D-05
 d= 0,ls=0.5,diis    83   -195.9231765421 -2.29D-06  1.52D-06  8.42D-06    35.6
                                                     3.82D-06  9.67D-06
 d= 0,ls=0.5,diis    84   -195.9231783546 -1.81D-06  2.17D-06  7.05D-06    36.0
                                                     3.53D-06  8.29D-06
 d= 0,ls=0.5,diis    85   -195.9231789036 -5.49D-07  9.21D-07  7.30D-06    36.4
                                                     3.35D-06  8.47D-06
 d= 0,ls=0.5,diis    86   -195.9231801310 -1.23D-06  5.47D-06  6.58D-06    36.8
                                                     6.27D-06  7.76D-06
 d= 0,ls=0.5,diis    87   -195.9231830336 -2.90D-06  2.05D-06  3.63D-06    37.3
                                                     4.56D-06  4.89D-06
 d= 0,ls=0.5,diis    88   -195.9231846758 -1.64D-06  1.35D-06  2.58D-06    37.7
                                                     4.37D-06  3.76D-06
 d= 0,ls=0.5,diis    89   -195.9231859659 -1.29D-06  6.22D-07  1.96D-06    38.1
                                                     4.18D-06  3.06D-06
 d= 0,ls=0.5,diis    90   -195.9231870695 -1.10D-06  6.99D-07  1.53D-06    38.5
                                                     4.09D-06  2.52D-06
 d= 0,ls=0.5,diis    91   -195.9231880654 -9.96D-07  2.24D-06  1.16D-06    39.0
                                                     3.91D-06  2.03D-06
 d= 0,ls=0.5,diis    92   -195.9231885851 -5.20D-07  5.93D-06  1.31D-06    39.4
                                                     5.32D-06  2.09D-06
 d= 0,ls=0.5,diis    93   -195.9231881661  4.19D-07  2.31D-06  2.48D-06    39.8
                                                     3.10D-06  3.20D-06
 d= 0,ls=0.5,diis    94   -195.9231884398 -2.74D-07  2.95D-06  2.58D-06    40.2
                                                     3.06D-06  3.28D-06
 d= 0,ls=0.5,diis    95   -195.9231883290  1.11D-07  1.07D-06  3.13D-06    40.6
                                                     2.47D-06  3.79D-06
 d= 0,ls=0.5,diis    96   -195.9231890207 -6.92D-07  1.02D-06  2.58D-06    41.1
                                                     2.16D-06  3.23D-06
 d= 0,ls=0.5,diis    97   -195.9231892922 -2.72D-07  1.35D-06  2.59D-06    41.5
                                                     2.16D-06  3.20D-06
 d= 0,ls=0.5,diis    98   -195.9231895442 -2.52D-07  1.32D-06  2.60D-06    41.9
                                                     1.92D-06  3.14D-06
 d= 0,ls=0.5,diis    99   -195.9231896715 -1.27D-07  8.81D-07  2.74D-06    42.3
                                                     1.82D-06  3.23D-06
 d= 0,ls=0.5,diis   100   -195.9231899787 -3.07D-07  7.47D-07  2.59D-06    42.7
                                                     1.93D-06  3.03D-06
 d= 0,ls=0.5,diis   101   -195.9231904608 -4.82D-07  7.92D-07  2.20D-06    43.1
                                                     1.97D-06  2.62D-06
 d= 0,ls=0.5,diis   102   -195.9231909318 -4.71D-07  4.24D-07  1.86D-06    43.6
                                                     1.80D-06  2.26D-06
 d= 0,ls=0.5,diis   103   -195.9231912532 -3.21D-07  5.40D-07  1.72D-06    44.0
                                                     1.83D-06  2.08D-06
 d= 0,ls=0.5,diis   104   -195.9231916148 -3.62D-07  1.76D-06  1.49D-06    44.4
                                                     2.01D-06  1.86D-06
 d= 0,ls=0.5,diis   105   -195.9231915987  1.61D-08  1.75D-06  1.73D-06    44.8
                                                     2.37D-06  2.07D-06
 d= 0,ls=0.5,diis   106   -195.9231921267 -5.28D-07  5.66D-07  1.23D-06    45.2
                                                     1.81D-06  1.58D-06
 d= 0,ls=0.5,diis   107   -195.9231924527 -3.26D-07  7.88D-07  1.04D-06    45.6
                                                     1.99D-06  1.36D-06
 d= 0,ls=0.5,diis   108   -195.9231928154 -3.63D-07  3.14D-07  7.95D-07    46.1
                                                     1.82D-06  1.10D-06
 d= 0,ls=0.5,diis   109   -195.9231930824 -2.67D-07  8.32D-07  6.68D-07    46.5
                                                     1.72D-06  9.42D-07
 d= 0,ls=0.5,diis   110   -195.9231932203 -1.38D-07  1.78D-06  6.94D-07    46.9
                                                     1.87D-06  9.41D-07
 d= 0,ls=0.5,diis   111   -195.9231932025  1.79D-08  1.05D-06  8.76D-07    47.3
                                                     1.39D-06  1.11D-06
 d= 0,ls=0.5,diis   112   -195.9231932474 -4.49D-08  1.46D-06  9.44D-07    47.7
                                                     1.46D-06  1.16D-06
 d= 0,ls=0.5,diis   113   -195.9231931922  5.52D-08  4.83D-07  1.13D-06    48.1
                                                     9.84D-07  1.33D-06
 d= 0,ls=0.5,diis   114   -195.9231932827 -9.04D-08  3.33D-07  1.09D-06    48.6
                                                     8.97D-07  1.29D-06
 d= 0,ls=0.5,diis   115   -195.9231933729 -9.02D-08  3.44D-07  1.06D-06    49.0
                                                     9.03D-07  1.24D-06
 d= 0,ls=0.5,diis   116   -195.9231934774 -1.05D-07  1.01D-06  1.00D-06    49.4
                                                     1.40D-06  1.17D-06
 d= 0,ls=0.5,diis   117   -195.9231937203 -2.43D-07  1.64D-06  7.64D-07    49.8
                                                     2.00D-06  9.31D-07
 d= 0,ls=0.5,diis   118   -195.9231940300 -3.10D-07  1.07D-06  4.74D-07    50.2
                                                     1.75D-06  6.28D-07
 d= 0,ls=0.5,diis   119   -195.9231942610 -2.31D-07  4.84D-07  2.98D-07    50.7
                                                     1.33D-06  4.31D-07
 d= 0,ls=0.5,diis   120   -195.9231943645 -1.04D-07  5.67D-07  2.81D-07    51.1
                                                     1.24D-06  3.98D-07
 d= 0,ls=0.5,diis   121   -195.9231944428 -7.82D-08  6.18D-07  2.80D-07    51.5
                                                     1.17D-06  3.86D-07
 d= 0,ls=0.5,diis   122   -195.9231945034 -6.07D-08  8.35D-07  2.88D-07    51.9
                                                     1.12D-06  3.84D-07
 d= 0,ls=0.5,diis   123   -195.9231945334 -3.00D-08  2.92D-07  3.21D-07    52.3
                                                     1.04D-06  4.09D-07
 d= 0,ls=0.5,diis   124   -195.9231946268 -9.34D-08  7.77D-07  2.66D-07    52.7
                                                     1.04D-06  3.47D-07
 d= 0,ls=0.5,diis   125   -195.9231946476 -2.08D-08  2.38D-07  3.01D-07    53.2
                                                     8.85D-07  3.74D-07
 d= 0,ls=0.5,diis   126   -195.9231947138 -6.62D-08  2.77D-07  2.65D-07    53.6
                                                     8.46D-07  3.34D-07
 d= 0,ls=0.5,diis   127   -195.9231947680 -5.42D-08  3.30D-07  2.45D-07    54.0
                                                     9.36D-07  3.09D-07
 d= 0,ls=0.5,diis   128   -195.9231948420 -7.40D-08  5.20D-07  1.99D-07    54.4
                                                     9.87D-07  2.61D-07
 d= 0,ls=0.5,diis   129   -195.9231949069 -6.49D-08  9.26D-07  1.62D-07    54.8
                                                     9.93D-07  2.17D-07
 d= 0,ls=0.5,diis   130   -195.9231949036  3.27D-09  4.78D-07  2.09D-07    55.2
                                                     8.98D-07  2.57D-07
 d= 0,ls=0.5,diis   131   -195.9231949740 -7.04D-08  1.52D-07  1.54D-07    55.7
                                                     7.61D-07  1.99D-07
 d= 0,ls=0.5,diis   132   -195.9231950203 -4.63D-08  2.28D-07  1.31D-07    56.1
                                                     7.28D-07  1.74D-07
 d= 0,ls=0.5,diis   133   -195.9231950550 -3.47D-08  1.63D-07  1.21D-07    56.5
                                                     7.29D-07  1.60D-07
 d= 0,ls=0.5,diis   134   -195.9231950964 -4.13D-08  2.98D-07  9.94D-08    56.9
                                                     7.06D-07  1.37D-07
 d= 0,ls=0.5,diis   135   -195.9231951233 -2.70D-08  7.37D-07  9.64D-08    57.3
                                                     8.13D-07  1.31D-07
 d= 0,ls=0.5,diis   136   -195.9231951266 -3.29D-09  3.24D-07  1.17D-07    57.7
                                                     6.13D-07  1.46D-07
 d= 0,ls=0.5,diis   137   -195.9231951509 -2.43D-08  2.18D-07  1.05D-07    58.2
                                                     6.12D-07  1.35D-07
 d= 0,ls=0.5,diis   138   -195.9231951853 -3.44D-08  2.83D-07  8.17D-08    58.6
                                                     6.59D-07  1.10D-07
 d= 0,ls=0.5,diis   139   -195.9231952206 -3.52D-08  1.80D-07  5.77D-08    59.0
                                                     6.20D-07  8.31D-08
 d= 0,ls=0.5,diis   140   -195.9231952479 -2.73D-08  1.22D-07  4.47D-08    59.4
                                                     5.78D-07  6.76D-08
 d= 0,ls=0.5,diis   141   -195.9231952696 -2.17D-08  6.13D-07  3.69D-08    59.8
                                                     6.60D-07  5.75D-08
 d= 0,ls=0.5,diis   142   -195.9231952700 -3.83D-10  2.07D-07  5.32D-08    60.2
                                                     4.79D-07  7.24D-08
 d= 0,ls=0.5,diis   143   -195.9231952842 -1.42D-08  2.64D-07  4.84D-08    60.7
                                                     4.45D-07  6.61D-08
 d= 0,ls=0.5,diis   144   -195.9231952923 -8.11D-09  2.25D-07  5.03D-08    61.1
                                                     4.03D-07  6.65D-08
 d= 0,ls=0.5,diis   145   -195.9231952999 -7.55D-09  1.33D-07  5.14D-08    61.5
                                                     4.07D-07  6.64D-08
 d= 0,ls=0.5,diis   146   -195.9231953141 -1.42D-08  3.18D-07  4.31D-08    61.9
                                                     3.99D-07  5.73D-08
 d= 0,ls=0.5,diis   147   -195.9231953164 -2.33D-09  3.19D-07  4.94D-08    62.3
                                                     3.83D-07  6.22D-08
 d= 0,ls=0.5,diis   148   -195.9231953172 -8.00D-10  5.20D-07  5.62D-08    62.7
                                                     4.79D-07  6.81D-08
 d= 0,ls=0.5,diis   149   -195.9231953089  8.24D-09  4.49D-07  7.35D-08    63.2
                                                     4.23D-07  8.35D-08
 d= 0,ls=0.5,diis   150   -195.9231952996  9.30D-09  2.30D-07  9.09D-08    63.6
                                                     2.86D-07  9.98D-08
 d= 0,ls=0.5,diis   151   -195.9231953006 -9.28D-10  1.44D-07  9.28D-08    64.0
                                                     1.95D-07  1.01D-07
 d= 0,ls=0.5,diis   152   -195.9231953068 -6.23D-09  1.27D-07  8.70D-08    64.4
                                                     2.10D-07  9.53D-08
 d= 0,ls=0.5,diis   153   -195.9231953145 -7.70D-09  1.33D-07  8.00D-08    64.8
                                                     2.05D-07  8.76D-08
 d= 0,ls=0.5,diis   154   -195.9231953212 -6.69D-09  1.48D-07  7.48D-08    65.2
                                                     1.78D-07  8.28D-08
 d= 0,ls=0.5,diis   155   -195.9231953209  2.36D-10  1.46D-06  7.85D-08    65.7
                                                     1.31D-06  8.62D-08
 d= 0,ls=0.5,diis   156   -195.9231953718 -5.09D-08  4.08D-07  1.65D-08    66.1
                                                     4.38D-07  2.52D-08
 d= 0,ls=0.5,diis   157   -195.9231953717  9.86D-11  4.24D-07  2.44D-08    66.5
                                                     5.22D-07  3.25D-08
 d= 0,ls=0.5,diis   158   -195.9231953870 -1.53D-08  1.05D-07  1.13D-08    66.9
                                                     3.41D-07  1.86D-08
 d= 0,ls=0.5,diis   159   -195.9231953934 -6.41D-09  7.97D-08  9.60D-09    67.3
                                                     3.45D-07  1.60D-08
 d= 0,ls=0.5,diis   160   -195.9231954006 -7.18D-09  1.83D-07  6.60D-09    67.8
                                                     3.21D-07  1.22D-08
 d= 0,ls=0.5,diis   161   -195.9231954043 -3.63D-09  3.91D-07  7.20D-09    68.2
                                                     3.77D-07  1.22D-08
 d= 0,ls=0.5,diis   162   -195.9231954036  6.81D-10  2.56D-07  1.22D-08    68.6
                                                     2.70D-07  1.69D-08
 d= 0,ls=0.5,diis   163   -195.9231954039 -3.30D-10  1.38D-07  1.50D-08    69.0
                                                     2.05D-07  1.92D-08
 d= 0,ls=0.5,diis   164   -195.9231954055 -1.56D-09  2.24D-07  1.57D-08    69.4
                                                     2.30D-07  1.96D-08
 d= 0,ls=0.5,diis   165   -195.9231954048  6.27D-10  1.73D-07  1.88D-08    69.8
                                                     1.82D-07  2.23D-08
 d= 0,ls=0.5,diis   166   -195.9231954042  6.04D-10  9.93D-08  2.14D-08    70.3
                                                     1.34D-07  2.46D-08
 d= 0,ls=0.5,diis   167   -195.9231954046 -4.04D-10  8.11D-08  2.23D-08    70.7
                                                     1.53D-07  2.54D-08
 d= 0,ls=0.5,diis   168   -195.9231954078 -3.15D-09  3.53D-07  1.97D-08    71.1
                                                     3.61D-07  2.26D-08
 d= 0,ls=0.5,diis   169   -195.9231954164 -8.57D-09  4.06D-07  1.02D-08    71.5
                                                     4.40D-07  1.30D-08
 d= 0,ls=0.5,diis   170   -195.9231954241 -7.72D-09  1.93D-07  3.23D-09    71.9
                                                     3.09D-07  5.77D-09
 d= 0,ls=0.5,diis   171   -195.9231954280 -3.92D-09  2.80D-07  1.35D-09    72.3
                                                     2.93D-07  3.37D-09
 d= 0,ls=0.5,diis   172   -195.9231954283 -3.43D-10  3.61D-07  3.18D-09    72.8
                                                     3.19D-07  5.10D-09
 d= 0,ls=0.5,diis   173   -195.9231954267  1.61D-09  2.34D-07  6.85D-09    73.2
                                                     2.15D-07  8.64D-09
 d= 0,ls=0.5,diis   174   -195.9231954255  1.22D-09  1.21D-07  9.52D-09    73.6
                                                     1.31D-07  1.12D-08
 d= 0,ls=0.5,diis   175   -195.9231954254  1.51D-10  5.23D-08  1.05D-08    74.0
                                                     9.46D-08  1.22D-08


         Total DFT energy =     -195.923195426058
      One electron energy =     -592.233204188198
           Coulomb energy =      255.540693540265
          Exchange energy =      -28.944953915425
       Correlation energy =       -1.243472164542
 Nuclear repulsion energy =      170.968550355031

    Dispersion correction =       -0.010809053189

 Numeric. integr. density =       38.999996614564

     Total iterative time =     74.3s


 
                    DFT Final Alpha Molecular Orbital Analysis
                    ------------------------------------------
 
 Vector    1  Occ=1.000000D+00  E=-1.017279D+01
              MO Center=  7.5D-01, -5.2D-01, -1.3D+00, r^2= 3.1D-02
   Bfn.  Coefficient  Atom+Function         Bfn.  Coefficient  Atom+Function  
  ----- ------------  ---------------      ----- ------------  ---------------
     2      0.423775   1 C  s                 3      0.359286   1 C  s         
     1      0.308487   1 C  s                 4      0.057900   1 C  s         
 
 Vector    2  Occ=1.000000D+00  E=-1.016474D+01
              MO Center=  2.0D+00, -7.3D-01, -8.1D-01, r^2= 3.1D-02
   Bfn.  Coefficient  Atom+Function         Bfn.  Coefficient  Atom+Function  
  ----- ------------  ---------------      ----- ------------  ---------------
    17      0.423624   2 C  s                18      0.359403   2 C  s         
    16      0.308438   2 C  s                19      0.057934   2 C  s         
 
 Vector    3  Occ=1.000000D+00  E=-1.012315D+01
              MO Center= -4.8D-01, -1.2D-02, -6.1D-01, r^2= 2.8D-02
   Bfn.  Coefficient  Atom+Function         Bfn.  Coefficient  Atom+Function  
  ----- ------------  ---------------      ----- ------------  ---------------
    38      0.424301   5 C  s                39      0.359325   5 C  s         
    37      0.308816   5 C  s                40      0.058085   5 C  s         
 
 Vector    4  Occ=1.000000D+00  E=-1.008252D+01
              MO Center= -3.1D-01,  2.9D-01,  8.8D-01, r^2= 2.8D-02
   Bfn.  Coefficient  Atom+Function         Bfn.  Coefficient  Atom+Function  
  ----- ------------  ---------------      ----- ------------  ---------------
    56      0.424318   7 C  s                57      0.359360   7 C  s         
    55      0.308839   7 C  s                58      0.057773   7 C  s         
 
 Vector    5  Occ=1.000000D+00  E=-1.003883D+01
              MO Center= -1.6D+00,  8.0D-01,  1.5D+00, r^2= 2.8D-02
   Bfn.  Coefficient  Atom+Function         Bfn.  Coefficient  Atom+Function  
  ----- ------------  ---------------      ----- ------------  ---------------
    83      0.424266  12 C  s                84      0.359414  12 C  s         
    82      0.308834  12 C  s                85      0.057665  12 C  s         
 
 Vector    6  Occ=1.000000D+00  E=-9.874307D-01
              MO Center=  8.8D-01, -4.6D-01, -9.2D-01, r^2= 1.6D+00
   Bfn.  Coefficient  Atom+Function         Bfn.  Coefficient  Atom+Function  
  ----- ------------  ---------------      ----- ------------  ---------------
     5      0.372358   1 C  s                20      0.313058   2 C  s         
    41      0.223792   5 C  s                 3     -0.110460   1 C  s         
    59      0.098071   7 C  s                18     -0.092858   2 C  s         
     2     -0.086580   1 C  s                 4      0.082386   1 C  s         
    22     -0.081806   2 C  px               21      0.077165   2 C  s         
 
 Vector    7  Occ=1.000000D+00  E=-9.052276D-01
              MO Center= -1.3D-03, -1.2D-02, -5.2D-02, r^2= 3.1D+00
   Bfn.  Coefficient  Atom+Function         Bfn.  Coefficient  Atom+Function  
  ----- ------------  ---------------      ----- ------------  ---------------
    41      0.306428   5 C  s                59      0.298445   7 C  s         
    20     -0.263463   2 C  s                86      0.165078  12 C  s         
     7     -0.110836   1 C  px                5     -0.094333   1 C  s         
    57     -0.084462   7 C  s                39     -0.082867   5 C  s         
    60      0.076855   7 C  s                18      0.073079   2 C  s         
 
 Vector    8  Occ=1.000000D+00  E=-8.283602D-01
              MO Center= -3.1D-01,  1.3D-01,  1.9D-01, r^2= 4.0D+00
   Bfn.  Coefficient  Atom+Function         Bfn.  Coefficient  Atom+Function  
  ----- ------------  ---------------      ----- ------------  ---------------
    86      0.292604  12 C  s                41     -0.258770   5 C  s         
    59      0.229851   7 C  s                20      0.216906   2 C  s         
     5     -0.133676   1 C  s                 7      0.117506   1 C  px        
    87      0.096106  12 C  s                42     -0.085461   5 C  s         
    45      0.084079   5 C  pz               60      0.081463   7 C  s         
 
 Vector    9  Occ=1.000000D+00  E=-7.478043D-01
              MO Center=  6.0D-02, -7.7D-03,  3.8D-02, r^2= 5.5D+00
   Bfn.  Coefficient  Atom+Function         Bfn.  Coefficient  Atom+Function  
  ----- ------------  ---------------      ----- ------------  ---------------
    86      0.308255  12 C  s                 5      0.270670   1 C  s         
    20     -0.198064   2 C  s                59     -0.130795   7 C  s         
    41     -0.106501   5 C  s                87      0.102820  12 C  s         
     9     -0.098493   1 C  pz               24     -0.092197   2 C  pz        
    52      0.087067   6 H  s                53      0.085487   6 H  s         
 
 Vector   10  Occ=1.000000D+00  E=-7.119084D-01
              MO Center=  1.3D-01, -2.1D-02,  6.2D-02, r^2= 4.6D+00
   Bfn.  Coefficient  Atom+Function         Bfn.  Coefficient  Atom+Function  
  ----- ------------  ---------------      ----- ------------  ---------------
    59      0.261210   7 C  s                20     -0.196451   2 C  s         
    86     -0.190917  12 C  s                41     -0.186949   5 C  s         
     5      0.185648   1 C  s                22     -0.133924   2 C  px        
    60      0.116344   7 C  s                43      0.106327   5 C  px        
    61      0.094897   7 C  px               25     -0.094284   2 C  px        
 
 Vector   11  Occ=1.000000D+00  E=-6.615267D-01
              MO Center=  1.1D+00, -5.0D-01, -8.6D-01, r^2= 3.5D+00
   Bfn.  Coefficient  Atom+Function         Bfn.  Coefficient  Atom+Function  
  ----- ------------  ---------------      ----- ------------  ---------------
     9      0.223478   1 C  pz               12      0.185331   1 C  pz        
    24      0.183339   2 C  pz               27      0.162601   2 C  pz        
    22     -0.159572   2 C  px               59     -0.130191   7 C  s         
    25     -0.123738   2 C  px               35     -0.118737   4 H  s         
    43      0.117289   5 C  px               86      0.115646  12 C  s         
 
 Vector   12  Occ=1.000000D+00  E=-6.304291D-01
              MO Center= -4.1D-01,  5.0D-02, -2.7D-01, r^2= 2.3D+00
   Bfn.  Coefficient  Atom+Function         Bfn.  Coefficient  Atom+Function  
  ----- ------------  ---------------      ----- ------------  ---------------
    44      0.246166   5 C  py               47      0.216639   5 C  py        
    62      0.157031   7 C  py               65      0.129924   7 C  py        
    71      0.125297   8 H  s                74     -0.125061   9 H  s         
     8      0.113505   1 C  py               70      0.107552   8 H  s         
    73     -0.107336   9 H  s                11      0.101111   1 C  py        
 
 Vector   13  Occ=1.000000D+00  E=-6.254332D-01
              MO Center=  7.7D-01, -3.5D-01, -6.1D-01, r^2= 3.1D+00
   Bfn.  Coefficient  Atom+Function         Bfn.  Coefficient  Atom+Function  
  ----- ------------  ---------------      ----- ------------  ---------------
     7      0.253635   1 C  px               22     -0.208395   2 C  px        
    10      0.179080   1 C  px               24     -0.166363   2 C  pz        
    25     -0.134381   2 C  px               27     -0.127087   2 C  pz        
    32     -0.114925   3 H  s                43     -0.114928   5 C  px        
    45      0.115450   5 C  pz                9      0.104904   1 C  pz        
 
 Vector   14  Occ=1.000000D+00  E=-5.564263D-01
              MO Center=  8.5D-01, -3.9D-01, -6.5D-01, r^2= 3.9D+00
   Bfn.  Coefficient  Atom+Function         Bfn.  Coefficient  Atom+Function  
  ----- ------------  ---------------      ----- ------------  ---------------
    43      0.208194   5 C  px               24     -0.187809   2 C  pz        
    46      0.181958   5 C  px               27     -0.167962   2 C  pz        
    35      0.160055   4 H  s                 9      0.137739   1 C  pz        
    32     -0.135513   3 H  s                12      0.132413   1 C  pz        
    22      0.119262   2 C  px               34      0.119803   4 H  s         
 
 Vector   15  Occ=1.000000D+00  E=-5.477644D-01
              MO Center= -4.2D-01,  2.3D-01,  4.7D-01, r^2= 3.7D+00
   Bfn.  Coefficient  Atom+Function         Bfn.  Coefficient  Atom+Function  
  ----- ------------  ---------------      ----- ------------  ---------------
    62      0.195641   7 C  py               89      0.174655  12 C  py        
    65      0.172551   7 C  py               92      0.149227  12 C  py        
     8     -0.148269   1 C  py               11     -0.141769   1 C  py        
    23     -0.114808   2 C  py               44     -0.114971   5 C  py        
    77      0.111049  10 H  s                80     -0.111404  11 H  s         
 
 Vector   16  Occ=1.000000D+00  E=-5.423596D-01
              MO Center= -4.9D-01,  2.1D-01,  3.2D-01, r^2= 4.0D+00
   Bfn.  Coefficient  Atom+Function         Bfn.  Coefficient  Atom+Function  
  ----- ------------  ---------------      ----- ------------  ---------------
    63     -0.195699   7 C  pz               45      0.190596   5 C  pz        
    48      0.165350   5 C  pz               66     -0.164313   7 C  pz        
    90     -0.164223  12 C  pz               93     -0.141732  12 C  pz        
     9     -0.113297   1 C  pz               53      0.112301   6 H  s         
   101     -0.102094  14 H  s                24      0.099322   2 C  pz        
 
 Vector   17  Occ=1.000000D+00  E=-5.010349D-01
              MO Center=  8.1D-01, -4.1D-01, -7.8D-01, r^2= 3.2D+00
   Bfn.  Coefficient  Atom+Function         Bfn.  Coefficient  Atom+Function  
  ----- ------------  ---------------      ----- ------------  ---------------
    23      0.285958   2 C  py               26      0.285307   2 C  py        
     8      0.210454   1 C  py               11      0.206475   1 C  py        
    44     -0.148656   5 C  py               47     -0.135707   5 C  py        
    71     -0.127169   8 H  s                74      0.126944   9 H  s         
    29      0.111406   2 C  py               70     -0.086091   8 H  s         
 
 Vector   18  Occ=1.000000D+00  E=-4.933759D-01
              MO Center= -8.1D-01,  4.4D-01,  9.1D-01, r^2= 2.8D+00
   Bfn.  Coefficient  Atom+Function         Bfn.  Coefficient  Atom+Function  
  ----- ------------  ---------------      ----- ------------  ---------------
    61      0.254091   7 C  px               88     -0.240406  12 C  px        
    64      0.222189   7 C  px               91     -0.192333  12 C  px        
    67      0.143672   7 C  px               90      0.121648  12 C  pz        
     9     -0.098205   1 C  pz               93      0.096515  12 C  pz        
    63     -0.095162   7 C  pz               89      0.094520  12 C  py        
 
 Vector   19  Occ=1.000000D+00  E=-4.728625D-01
              MO Center= -1.1D+00,  6.0D-01,  1.2D+00, r^2= 3.1D+00
   Bfn.  Coefficient  Atom+Function         Bfn.  Coefficient  Atom+Function  
  ----- ------------  ---------------      ----- ------------  ---------------
    90      0.238472  12 C  pz               93      0.208566  12 C  pz        
   101      0.197328  14 H  s                45      0.173081   5 C  pz        
    48      0.164089   5 C  pz              100      0.148974  14 H  s         
    63     -0.147896   7 C  pz               42      0.137576   5 C  s         
    88      0.125426  12 C  px               96      0.110765  12 C  pz        
 
 Vector   20  Occ=1.000000D+00  E=-4.702704D-01
              MO Center= -1.2D+00,  5.9D-01,  1.2D+00, r^2= 2.5D+00
   Bfn.  Coefficient  Atom+Function         Bfn.  Coefficient  Atom+Function  
  ----- ------------  ---------------      ----- ------------  ---------------
    89      0.239799  12 C  py               92      0.204658  12 C  py        
    62     -0.185286   7 C  py               98      0.175776  13 H  s         
   104     -0.176066  15 H  s                77     -0.165066  10 H  s         
    80      0.164848  11 H  s                65     -0.158084   7 C  py        
    97      0.124476  13 H  s               103     -0.124705  15 H  s         
 
 Vector   21  Occ=0.000000D+00  E=-2.858930D-01
              MO Center=  1.2D+00, -5.8D-01, -1.1D+00, r^2= 2.2D+00
   Bfn.  Coefficient  Atom+Function         Bfn.  Coefficient  Atom+Function  
  ----- ------------  ---------------      ----- ------------  ---------------
    14      0.407368   1 C  py               11      0.389424   1 C  py        
    29     -0.375687   2 C  py               26     -0.352298   2 C  py        
     8      0.340859   1 C  py               23     -0.306117   2 C  py        
    71     -0.126845   8 H  s                74      0.126727   9 H  s         
    13      0.111934   1 C  px               72     -0.107804   8 H  s         
 
 Vector   22  Occ=0.000000D+00  E=-1.528333D-01
              MO Center=  1.4D-01, -2.9D-01, -1.1D+00, r^2= 7.2D+00
   Bfn.  Coefficient  Atom+Function         Bfn.  Coefficient  Atom+Function  
  ----- ------------  ---------------      ----- ------------  ---------------
    42      1.045082   5 C  s                54     -0.949706   6 H  s         
    21      0.924721   2 C  s                72     -0.839131   8 H  s         
    75     -0.839248   9 H  s                49     -0.645342   5 C  px        
    36     -0.623577   4 H  s                 6      0.618921   1 C  s         
    60      0.596226   7 C  s                15     -0.484238   1 C  pz        
 
 Vector   23  Occ=0.000000D+00  E=-1.336426D-01
              MO Center=  1.1D+00, -2.9D-01,  8.0D-03, r^2= 6.9D+00
   Bfn.  Coefficient  Atom+Function         Bfn.  Coefficient  Atom+Function  
  ----- ------------  ---------------      ----- ------------  ---------------
    60      1.560398   7 C  s                33     -1.202715   3 H  s         
    54      0.993730   6 H  s                21      0.978426   2 C  s         
     6     -0.806906   1 C  s                42     -0.804718   5 C  s         
    78     -0.657561  10 H  s                81     -0.656904  11 H  s         
    15      0.441405   1 C  pz               51     -0.440214   5 C  pz        
 
 Vector   24  Occ=0.000000D+00  E=-1.221828D-01
              MO Center=  7.0D-01, -3.8D-01, -7.9D-01, r^2= 9.6D+00
   Bfn.  Coefficient  Atom+Function         Bfn.  Coefficient  Atom+Function  
  ----- ------------  ---------------      ----- ------------  ---------------
    21      1.318028   2 C  s                42     -1.185384   5 C  s         
    36     -1.049013   4 H  s                87     -1.044438  12 C  s         
    54     -0.829485   6 H  s                 6      0.699430   1 C  s         
    72      0.672857   8 H  s                75      0.670741   9 H  s         
    33     -0.628400   3 H  s                49      0.510067   5 C  px        
 
 Vector   25  Occ=0.000000D+00  E=-1.048672D-01
              MO Center= -6.9D-01,  1.2D-01, -2.8D-01, r^2= 6.0D+00
   Bfn.  Coefficient  Atom+Function         Bfn.  Coefficient  Atom+Function  
  ----- ------------  ---------------      ----- ------------  ---------------
    72      1.402451   8 H  s                75     -1.401707   9 H  s         
    50     -0.964378   5 C  py               78      0.930943  10 H  s         
    81     -0.932122  11 H  s                99      0.420503  13 H  s         
   105     -0.422048  15 H  s                14      0.413075   1 C  py        
    68     -0.404328   7 C  py               47     -0.309950   5 C  py        
 
 Vector   26  Occ=0.000000D+00  E=-8.966763D-02
              MO Center=  2.0D-01, -4.6D-02,  3.9D-02, r^2= 9.9D+00
   Bfn.  Coefficient  Atom+Function         Bfn.  Coefficient  Atom+Function  
  ----- ------------  ---------------      ----- ------------  ---------------
    87      1.495930  12 C  s                 6     -1.266502   1 C  s         
    36     -1.198074   4 H  s                33      1.011219   3 H  s         
    30     -0.849435   2 C  pz               49      0.809639   5 C  px        
    42     -0.630638   5 C  s               102     -0.619793  14 H  s         
    21      0.582482   2 C  s                75      0.520250   9 H  s         
 
 Vector   27  Occ=0.000000D+00  E=-7.580443D-02
              MO Center=  5.7D-01, -2.8D-01, -5.1D-01, r^2= 9.1D+00
   Bfn.  Coefficient  Atom+Function         Bfn.  Coefficient  Atom+Function  
  ----- ------------  ---------------      ----- ------------  ---------------
     6      2.175814   1 C  s                42     -1.475579   5 C  s         
    21     -1.396578   2 C  s                60      1.325901   7 C  s         
    54     -1.141982   6 H  s                78     -0.919128  10 H  s         
    81     -0.920142  11 H  s                67      0.698911   7 C  px        
    75      0.694621   9 H  s                36      0.690323   4 H  s         
 
 Vector   28  Occ=0.000000D+00  E=-6.502697D-02
              MO Center=  3.3D-02,  8.9D-02,  4.3D-01, r^2= 6.4D+00
   Bfn.  Coefficient  Atom+Function         Bfn.  Coefficient  Atom+Function  
  ----- ------------  ---------------      ----- ------------  ---------------
    68     -2.067965   7 C  py               78      1.968587  10 H  s         
    81     -1.974554  11 H  s                50      1.946472   5 C  py        
    72     -1.571611   8 H  s                75      1.570593   9 H  s         
    14     -0.662882   1 C  py               95      0.581399  12 C  py        
    67     -0.564883   7 C  px               49      0.533385   5 C  px        
 
 Vector   29  Occ=0.000000D+00  E=-5.647321D-02
              MO Center=  2.4D-02,  4.4D-02,  2.1D-01, r^2= 9.2D+00
   Bfn.  Coefficient  Atom+Function         Bfn.  Coefficient  Atom+Function  
  ----- ------------  ---------------      ----- ------------  ---------------
    33      1.439051   3 H  s                36     -1.300477   4 H  s         
    30     -1.185640   2 C  pz               87     -1.150229  12 C  s         
    54      1.096132   6 H  s                78     -0.985755  10 H  s         
    81     -0.972295  11 H  s                67      0.897248   7 C  px        
    15      0.882549   1 C  pz               69      0.808880   7 C  pz        
 
 Vector   30  Occ=0.000000D+00  E=-5.084846D-02
              MO Center= -7.3D-01,  3.0D-01,  4.1D-01, r^2= 8.1D+00
   Bfn.  Coefficient  Atom+Function         Bfn.  Coefficient  Atom+Function  
  ----- ------------  ---------------      ----- ------------  ---------------
    42      1.970227   5 C  s                49      1.556334   5 C  px        
   102     -1.512751  14 H  s                15     -1.243856   1 C  pz        
    13      1.073738   1 C  px               96      0.899627  12 C  pz        
    30      0.803571   2 C  pz               67     -0.800893   7 C  px        
    60     -0.775189   7 C  s                54     -0.770750   6 H  s         
 
 Vector   31  Occ=0.000000D+00  E=-3.247000D-02
              MO Center= -8.5D-01,  3.6D-01,  5.7D-01, r^2= 7.5D+00
   Bfn.  Coefficient  Atom+Function         Bfn.  Coefficient  Atom+Function  
  ----- ------------  ---------------      ----- ------------  ---------------
    60      2.771901   7 C  s                87     -1.953987  12 C  s         
    51     -1.812639   5 C  pz               67     -1.647885   7 C  px        
    69     -1.214008   7 C  pz               42     -1.147677   5 C  s         
    96      1.009505  12 C  pz                6     -0.731383   1 C  s         
    78      0.607351  10 H  s                81      0.603778  11 H  s         
 
 Vector   32  Occ=0.000000D+00  E=-2.604870D-02
              MO Center= -2.0D+00,  7.8D-01,  9.7D-01, r^2= 5.1D+00
   Bfn.  Coefficient  Atom+Function         Bfn.  Coefficient  Atom+Function  
  ----- ------------  ---------------      ----- ------------  ---------------
    99      2.140913  13 H  s               105     -2.137243  15 H  s         
    95     -1.739894  12 C  py               68      0.864978   7 C  py        
    81      0.575085  11 H  s                78     -0.571419  10 H  s         
    72     -0.474304   8 H  s                94     -0.476615  12 C  px        
    75      0.471992   9 H  s                96      0.410878  12 C  pz        
 
 Vector   33  Occ=0.000000D+00  E=-1.118200D-02
              MO Center=  1.2D+00, -4.0D-01, -2.7D-01, r^2= 9.3D+00
   Bfn.  Coefficient  Atom+Function         Bfn.  Coefficient  Atom+Function  
  ----- ------------  ---------------      ----- ------------  ---------------
     6      2.460903   1 C  s                15      2.420107   1 C  pz        
    28      2.222160   2 C  px               54      2.136049   6 H  s         
    36     -1.616808   4 H  s                42     -1.547723   5 C  s         
   102     -1.271647  14 H  s                49     -1.102079   5 C  px        
    21     -1.087755   2 C  s                96      0.814648  12 C  pz        
 
 Vector   34  Occ=0.000000D+00  E=-5.880014D-03
              MO Center= -4.4D-01,  3.0D-01,  7.6D-01, r^2= 9.1D+00
   Bfn.  Coefficient  Atom+Function         Bfn.  Coefficient  Atom+Function  
  ----- ------------  ---------------      ----- ------------  ---------------
    49      2.173989   5 C  px               94     -1.673174  12 C  px        
   102      1.572396  14 H  s                69      1.535168   7 C  pz        
    13      1.508813   1 C  px               42      1.478586   5 C  s         
    67     -1.395964   7 C  px               99     -1.315362  13 H  s         
   105     -1.320027  15 H  s                21     -1.061334   2 C  s         
 
 Vector   35  Occ=0.000000D+00  E= 1.046401D-02
              MO Center=  1.1D+00, -4.3D-01, -5.2D-01, r^2= 6.6D+00
   Bfn.  Coefficient  Atom+Function         Bfn.  Coefficient  Atom+Function  
  ----- ------------  ---------------      ----- ------------  ---------------
    29      0.800688   2 C  py               78     -0.762554  10 H  s         
    81      0.763812  11 H  s                68      0.742087   7 C  py        
    95     -0.715558  12 C  py               26     -0.448319   2 C  py        
    14      0.445070   1 C  py               11     -0.352672   1 C  py        
    99      0.226640  13 H  s               105     -0.226560  15 H  s         
 
 Vector   36  Occ=0.000000D+00  E= 2.289609D-02
              MO Center= -2.8D-01,  2.6D-01,  7.8D-01, r^2= 9.3D+00
   Bfn.  Coefficient  Atom+Function         Bfn.  Coefficient  Atom+Function  
  ----- ------------  ---------------      ----- ------------  ---------------
    94      1.645613  12 C  px               28      1.465633   2 C  px        
    33     -1.262869   3 H  s                69     -1.168497   7 C  pz        
    30      1.161539   2 C  pz               51     -1.096552   5 C  pz        
    13      0.946946   1 C  px              102      0.904590  14 H  s         
    21     -0.829987   2 C  s                 6      0.688435   1 C  s         
 
 Vector   37  Occ=0.000000D+00  E= 4.359553D-02
              MO Center=  5.5D-01, -2.1D-01, -2.7D-01, r^2= 7.6D+00
   Bfn.  Coefficient  Atom+Function         Bfn.  Coefficient  Atom+Function  
  ----- ------------  ---------------      ----- ------------  ---------------
    13      2.778240   1 C  px               15      2.142293   1 C  pz        
    21     -2.064123   2 C  s                54      1.894255   6 H  s         
     6      1.709731   1 C  s                69     -1.645703   7 C  pz        
    28      1.536822   2 C  px               51     -1.400245   5 C  pz        
    36     -1.256460   4 H  s                49     -0.647821   5 C  px        
 
 Vector   38  Occ=0.000000D+00  E= 6.620961D-02
              MO Center=  2.0D-01, -1.5D-01, -3.9D-01, r^2= 8.5D+00
   Bfn.  Coefficient  Atom+Function         Bfn.  Coefficient  Atom+Function  
  ----- ------------  ---------------      ----- ------------  ---------------
    13      2.184041   1 C  px               51     -2.071530   5 C  pz        
    42      1.273612   5 C  s                21     -1.056919   2 C  s         
    15      0.801087   1 C  pz               69      0.802257   7 C  pz        
    33     -0.592533   3 H  s                35     -0.553528   4 H  s         
    96     -0.499386  12 C  pz               54      0.435490   6 H  s         
 
 Vector   39  Occ=0.000000D+00  E= 8.655378D-02
              MO Center=  1.5D-01, -1.2D-02,  1.8D-01, r^2= 6.6D+00
   Bfn.  Coefficient  Atom+Function         Bfn.  Coefficient  Atom+Function  
  ----- ------------  ---------------      ----- ------------  ---------------
    30      1.471169   2 C  pz               51     -1.468199   5 C  pz        
    13      1.238762   1 C  px               33     -1.223888   3 H  s         
    42      1.158679   5 C  s                94     -0.778140  12 C  px        
    32     -0.679264   3 H  s                 5     -0.575840   1 C  s         
    15      0.552355   1 C  pz               96     -0.533704  12 C  pz        
 
 Vector   40  Occ=0.000000D+00  E= 8.660912D-02
              MO Center= -1.1D+00,  6.9D-01,  1.6D+00, r^2= 4.8D+00
   Bfn.  Coefficient  Atom+Function         Bfn.  Coefficient  Atom+Function  
  ----- ------------  ---------------      ----- ------------  ---------------
    95      1.719501  12 C  py               98     -0.538054  13 H  s         
    94      0.535275  12 C  px              104      0.537751  15 H  s         
   105      0.489299  15 H  s                99     -0.474963  13 H  s         
    80      0.393824  11 H  s                96     -0.365377  12 C  pz        
    77     -0.361715  10 H  s                78     -0.285273  10 H  s         
 
 Vector   41  Occ=0.000000D+00  E= 9.215411D-02
              MO Center= -4.0D-01,  1.1D-01, -2.4D-02, r^2= 6.6D+00
   Bfn.  Coefficient  Atom+Function         Bfn.  Coefficient  Atom+Function  
  ----- ------------  ---------------      ----- ------------  ---------------
    50      1.609992   5 C  py               14     -1.253785   1 C  py        
    68      1.160233   7 C  py               95     -0.772156  12 C  py        
    77     -0.445592  10 H  s                80      0.445030  11 H  s         
    49      0.435192   5 C  px               51     -0.386926   5 C  pz        
    71     -0.371420   8 H  s                74      0.371076   9 H  s         
 
 Vector   42  Occ=0.000000D+00  E= 9.507326D-02
              MO Center= -3.6D-01,  5.2D-04, -4.0D-01, r^2= 6.7D+00
   Bfn.  Coefficient  Atom+Function         Bfn.  Coefficient  Atom+Function  
  ----- ------------  ---------------      ----- ------------  ---------------
    13      2.265760   1 C  px               33     -1.886737   3 H  s         
    21     -1.745573   2 C  s                30      1.423355   2 C  pz        
    49     -1.392149   5 C  px               51     -1.222606   5 C  pz        
    60      1.136490   7 C  s                69     -1.021021   7 C  pz        
    78      0.938066  10 H  s                81      0.935899  11 H  s         
 
 Vector   43  Occ=0.000000D+00  E= 1.028775D-01
              MO Center=  1.2D+00, -5.7D-01, -1.0D+00, r^2= 5.7D+00
   Bfn.  Coefficient  Atom+Function         Bfn.  Coefficient  Atom+Function  
  ----- ------------  ---------------      ----- ------------  ---------------
    14      1.685120   1 C  py               29     -1.515639   2 C  py        
    11     -0.572892   1 C  py               26      0.469219   2 C  py        
    13      0.456038   1 C  px               75      0.449651   9 H  s         
    72     -0.445918   8 H  s                68      0.435161   7 C  py        
    28     -0.417800   2 C  px               15     -0.399050   1 C  pz        
 
 Vector   44  Occ=0.000000D+00  E= 1.320685D-01
              MO Center= -9.7D-01,  3.1D-01,  1.7D-01, r^2= 8.1D+00
   Bfn.  Coefficient  Atom+Function         Bfn.  Coefficient  Atom+Function  
  ----- ------------  ---------------      ----- ------------  ---------------
    69      2.300139   7 C  pz               96     -2.226105  12 C  pz        
    49      2.131343   5 C  px               51      2.117448   5 C  pz        
    60     -1.748264   7 C  s                15     -1.736228   1 C  pz        
     6     -1.616020   1 C  s                21      1.617555   2 C  s         
    42      1.576951   5 C  s                94     -1.195494  12 C  px        
 
 Vector   45  Occ=0.000000D+00  E= 1.821786D-01
              MO Center=  9.0D-01, -3.8D-01, -5.7D-01, r^2= 5.5D+00
   Bfn.  Coefficient  Atom+Function         Bfn.  Coefficient  Atom+Function  
  ----- ------------  ---------------      ----- ------------  ---------------
    21      2.209662   2 C  s                33      2.082324   3 H  s         
     6     -1.956333   1 C  s                13     -1.475732   1 C  px        
    30     -1.344554   2 C  pz               28     -1.099447   2 C  px        
    67     -1.088165   7 C  px               42     -0.955599   5 C  s         
    53      0.783608   6 H  s                10     -0.775120   1 C  px        
 
 Vector   46  Occ=0.000000D+00  E= 1.929962D-01
              MO Center=  4.9D-01, -2.4D-01, -4.5D-01, r^2= 7.2D+00
   Bfn.  Coefficient  Atom+Function         Bfn.  Coefficient  Atom+Function  
  ----- ------------  ---------------      ----- ------------  ---------------
    15      2.022430   1 C  pz               54      1.985123   6 H  s         
    36      1.896014   4 H  s                42     -1.835296   5 C  s         
    67     -1.674020   7 C  px               51     -1.204398   5 C  pz        
    28     -1.117486   2 C  px               49     -1.042250   5 C  px        
    33     -1.022939   3 H  s                13     -0.901084   1 C  px        
 
 Vector   47  Occ=0.000000D+00  E= 1.954755D-01
              MO Center= -5.3D-01,  2.0D-01,  2.4D-01, r^2= 7.6D+00
   Bfn.  Coefficient  Atom+Function         Bfn.  Coefficient  Atom+Function  
  ----- ------------  ---------------      ----- ------------  ---------------
    50      5.616095   5 C  py               68     -5.448793   7 C  py        
    95      2.587068  12 C  py               72     -2.488160   8 H  s         
    75      2.488735   9 H  s                78      2.025386  10 H  s         
    81     -2.024332  11 H  s                14     -1.549189   1 C  py        
    49      1.546674   5 C  px               67     -1.497408   7 C  px        
 
 Vector   48  Occ=0.000000D+00  E= 2.177089D-01
              MO Center= -7.1D-01,  1.5D-01, -2.0D-01, r^2= 6.4D+00
   Bfn.  Coefficient  Atom+Function         Bfn.  Coefficient  Atom+Function  
  ----- ------------  ---------------      ----- ------------  ---------------
    68      2.484638   7 C  py               78     -2.461587  10 H  s         
    81      2.460843  11 H  s                72     -2.330109   8 H  s         
    75      2.329560   9 H  s                50      1.294954   5 C  py        
    71      0.846998   8 H  s                74     -0.846047   9 H  s         
    47     -0.754298   5 C  py               67      0.682267   7 C  px        
 
 Vector   49  Occ=0.000000D+00  E= 2.288196D-01
              MO Center=  5.8D-02,  2.7D-02,  1.8D-01, r^2= 9.0D+00
   Bfn.  Coefficient  Atom+Function         Bfn.  Coefficient  Atom+Function  
  ----- ------------  ---------------      ----- ------------  ---------------
    13      4.303454   1 C  px               30      4.229975   2 C  pz        
    33     -4.166404   3 H  s                15     -2.679797   1 C  pz        
    67      2.388892   7 C  px               49      2.271333   5 C  px        
    42      2.057674   5 C  s                14     -1.809810   1 C  py        
    51     -1.732599   5 C  pz               54     -1.726158   6 H  s         
 
 Vector   50  Occ=0.000000D+00  E= 2.434294D-01
              MO Center=  4.6D-01, -2.6D-01, -5.9D-01, r^2= 9.9D+00
   Bfn.  Coefficient  Atom+Function         Bfn.  Coefficient  Atom+Function  
  ----- ------------  ---------------      ----- ------------  ---------------
    51      3.445610   5 C  pz               36      2.633076   4 H  s         
    30      2.610919   2 C  pz               33     -2.137800   3 H  s         
    96      2.075129  12 C  pz               69      1.936196   7 C  pz        
   102     -1.813990  14 H  s                54      1.539559   6 H  s         
    60     -1.287882   7 C  s                28     -1.117695   2 C  px        
 
 Vector   51  Occ=0.000000D+00  E= 2.532742D-01
              MO Center=  1.1D+00, -5.9D-01, -1.3D+00, r^2= 8.0D+00
   Bfn.  Coefficient  Atom+Function         Bfn.  Coefficient  Atom+Function  
  ----- ------------  ---------------      ----- ------------  ---------------
    15      7.047307   1 C  pz               54      5.669107   6 H  s         
    36     -3.634238   4 H  s                30     -3.355649   2 C  pz        
    28      2.521207   2 C  px               21     -1.888515   2 C  s         
    33      1.776263   3 H  s                14      1.491937   1 C  py        
    29     -1.480504   2 C  py               67     -1.257325   7 C  px        
 
 Vector   52  Occ=0.000000D+00  E= 2.745774D-01
              MO Center= -7.3D-01,  1.1D-01, -4.0D-01, r^2= 6.1D+00
   Bfn.  Coefficient  Atom+Function         Bfn.  Coefficient  Atom+Function  
  ----- ------------  ---------------      ----- ------------  ---------------
    42      2.860852   5 C  s                36      1.923169   4 H  s         
    72     -1.762040   8 H  s                75     -1.758566   9 H  s         
    41     -1.617451   5 C  s                28     -1.568102   2 C  px        
    30      1.070074   2 C  pz               96     -0.978481  12 C  pz        
    49     -0.889196   5 C  px               71      0.707938   8 H  s         
 
 Vector   53  Occ=0.000000D+00  E= 2.798171D-01
              MO Center= -9.5D-01,  3.8D-01,  5.3D-01, r^2= 7.3D+00
   Bfn.  Coefficient  Atom+Function         Bfn.  Coefficient  Atom+Function  
  ----- ------------  ---------------      ----- ------------  ---------------
    99      2.402220  13 H  s               105     -2.394591  15 H  s         
    95     -2.090429  12 C  py               81     -1.661987  11 H  s         
    78      1.653420  10 H  s                72     -1.520965   8 H  s         
    75      1.525528   9 H  s                71      0.807497   8 H  s         
    74     -0.809317   9 H  s                77     -0.749704  10 H  s         
 
 Vector   54  Occ=0.000000D+00  E= 2.865725D-01
              MO Center=  4.0D-01, -2.9D-02,  3.4D-01, r^2= 8.1D+00
   Bfn.  Coefficient  Atom+Function         Bfn.  Coefficient  Atom+Function  
  ----- ------------  ---------------      ----- ------------  ---------------
    30      4.013832   2 C  pz               15     -3.511059   1 C  pz        
    36      3.105361   4 H  s                67     -2.796799   7 C  px        
    54     -2.560296   6 H  s                13      2.393895   1 C  px        
    42      2.377417   5 C  s                33     -2.195741   3 H  s         
    28     -1.991943   2 C  px               78      1.850242  10 H  s         
 
 Vector   55  Occ=0.000000D+00  E= 3.026430D-01
              MO Center= -9.8D-01,  6.2D-01,  1.5D+00, r^2= 6.9D+00
   Bfn.  Coefficient  Atom+Function         Bfn.  Coefficient  Atom+Function  
  ----- ------------  ---------------      ----- ------------  ---------------
   102      3.202771  14 H  s                96     -2.245683  12 C  pz        
    13      1.516157   1 C  px               60      1.463377   7 C  s         
    28      1.331294   2 C  px               49      1.299687   5 C  px        
    99     -1.287845  13 H  s               105     -1.288510  15 H  s         
   101     -1.015863  14 H  s                33     -0.998917   3 H  s         
 
 Vector   56  Occ=0.000000D+00  E= 3.076318D-01
              MO Center=  1.0D+00, -2.5D-01,  1.2D-01, r^2= 8.0D+00
   Bfn.  Coefficient  Atom+Function         Bfn.  Coefficient  Atom+Function  
  ----- ------------  ---------------      ----- ------------  ---------------
    33      2.874048   3 H  s                42     -2.619043   5 C  s         
    21     -2.555180   2 C  s                30     -2.043518   2 C  pz        
    13     -1.670891   1 C  px               67      1.374366   7 C  px        
    20      1.364927   2 C  s                60     -1.296646   7 C  s         
    15      1.246259   1 C  pz               94      1.076263  12 C  px        
 
 Vector   57  Occ=0.000000D+00  E= 3.213480D-01
              MO Center= -1.3D+00,  6.4D-01,  1.2D+00, r^2= 5.1D+00
   Bfn.  Coefficient  Atom+Function         Bfn.  Coefficient  Atom+Function  
  ----- ------------  ---------------      ----- ------------  ---------------
    99      1.803965  13 H  s               105     -1.805306  15 H  s         
    98     -1.067623  13 H  s               104      1.067937  15 H  s         
    50      1.042312   5 C  py               78     -1.001877  10 H  s         
    81      1.000408  11 H  s                95     -0.986674  12 C  py        
    77      0.876164  10 H  s                80     -0.875146  11 H  s         
 
 Vector   58  Occ=0.000000D+00  E= 3.398238D-01
[...]
              MO Center= -3.5D-01,  2.1D-01,  4.7D-01, r^2= 3.6D+00
   Bfn.  Coefficient  Atom+Function         Bfn.  Coefficient  Atom+Function  
  ----- ------------  ---------------      ----- ------------  ---------------
    68     -1.563198   7 C  py               50      1.525830   5 C  py        
    80     -1.153989  11 H  s                77      1.144436  10 H  s         
    95      0.932504  12 C  py               71     -0.884323   8 H  s         
    74      0.877425   9 H  s                79      0.866549  11 H  s         
    76     -0.860142  10 H  s                70      0.665032   8 H  s         
 
 Vector   90  Occ=0.000000D+00  E= 2.218131D+00
              MO Center=  1.9D+00, -6.5D-01, -6.2D-01, r^2= 3.4D+00
   Bfn.  Coefficient  Atom+Function         Bfn.  Coefficient  Atom+Function  
  ----- ------------  ---------------      ----- ------------  ---------------
    15      2.997430   1 C  pz               30     -2.717522   2 C  pz        
    28      1.649536   2 C  px               32      1.648750   3 H  s         
    35     -1.310678   4 H  s                36     -1.278196   4 H  s         
    54      1.261912   6 H  s                29     -1.094279   2 C  py        
    31     -1.095961   3 H  s                34      0.903303   4 H  s         
 
 Vector   91  Occ=0.000000D+00  E= 2.306486D+00
              MO Center=  1.1D+00, -5.9D-01, -1.3D+00, r^2= 3.1D+00
   Bfn.  Coefficient  Atom+Function         Bfn.  Coefficient  Atom+Function  
  ----- ------------  ---------------      ----- ------------  ---------------
    21      4.205949   2 C  s                20     -3.370771   2 C  s         
     6      3.296308   1 C  s                 5     -3.269753   1 C  s         
    13     -2.646260   1 C  px                4      2.459260   1 C  s         
    19      2.463938   2 C  s                51      2.442638   5 C  pz        
    49     -1.838601   5 C  px               60     -1.503765   7 C  s         
 
 Vector   92  Occ=0.000000D+00  E= 2.416760D+00
              MO Center=  1.5D+00, -6.7D-01, -1.1D+00, r^2= 2.4D+00
   Bfn.  Coefficient  Atom+Function         Bfn.  Coefficient  Atom+Function  
  ----- ------------  ---------------      ----- ------------  ---------------
    21     -5.953253   2 C  s                 6      5.422940   1 C  s         
    20      4.075287   2 C  s                 5     -3.831811   1 C  s         
    19     -2.735126   2 C  s                 4      2.510423   1 C  s         
    13      2.255595   1 C  px               28      1.363882   2 C  px        
    30      1.084077   2 C  pz               15      0.952150   1 C  pz        
 
 Vector   93  Occ=0.000000D+00  E= 2.543007D+00
              MO Center= -2.8D-01,  1.1D-01,  1.5D-01, r^2= 3.2D+00
   Bfn.  Coefficient  Atom+Function         Bfn.  Coefficient  Atom+Function  
  ----- ------------  ---------------      ----- ------------  ---------------
    42      5.389838   5 C  s                60      4.349830   7 C  s         
    41     -3.683503   5 C  s                59     -3.549203   7 C  s         
    58      2.471056   7 C  s                40      2.450244   5 C  s         
    87     -2.282031  12 C  s                15     -2.065016   1 C  pz        
    30      2.006340   2 C  pz               13      1.995064   1 C  px        
 
 Vector   94  Occ=0.000000D+00  E= 2.616985D+00
              MO Center= -1.1D+00,  6.0D-01,  1.2D+00, r^2= 3.3D+00
   Bfn.  Coefficient  Atom+Function         Bfn.  Coefficient  Atom+Function  
  ----- ------------  ---------------      ----- ------------  ---------------
    87      5.788205  12 C  s                42     -4.784963   5 C  s         
    86     -4.478912  12 C  s                85      3.037070  12 C  s         
    60      2.485697   7 C  s                 6      2.135264   1 C  s         
    41      1.992617   5 C  s                69     -1.917208   7 C  pz        
    67      1.863837   7 C  px               59     -1.692896   7 C  s         
 
 Vector   95  Occ=0.000000D+00  E= 2.686610D+00
              MO Center= -7.8D-01,  3.0D-01,  3.7D-01, r^2= 3.4D+00
   Bfn.  Coefficient  Atom+Function         Bfn.  Coefficient  Atom+Function  
  ----- ------------  ---------------      ----- ------------  ---------------
    42      7.901071   5 C  s                60     -7.090602   7 C  s         
    87      4.643329  12 C  s                41     -3.894452   5 C  s         
     6     -3.833406   1 C  s                59      3.464092   7 C  s         
    86     -2.706962  12 C  s                15     -2.591546   1 C  pz        
    40      2.422001   5 C  s                58     -2.174301   7 C  s         
 
 Vector   96  Occ=0.000000D+00  E= 1.122365D+01
              MO Center=  1.4D+00, -6.2D-01, -1.0D+00, r^2= 9.1D-01
   Bfn.  Coefficient  Atom+Function         Bfn.  Coefficient  Atom+Function  
  ----- ------------  ---------------      ----- ------------  ---------------
    19     -2.405228   2 C  s                18      2.375050   2 C  s         
     4     -2.245445   1 C  s                 3      2.189058   1 C  s         
    20      2.015849   2 C  s                 5      1.898922   1 C  s         
     6     -1.367519   1 C  s                21     -1.356556   2 C  s         
    17     -1.252408   2 C  s                 2     -1.151410   1 C  s         
 
 Vector   97  Occ=0.000000D+00  E= 1.152280D+01
              MO Center= -1.7D-01, -1.1D-01, -6.5D-01, r^2= 1.1D+00
   Bfn.  Coefficient  Atom+Function         Bfn.  Coefficient  Atom+Function  
  ----- ------------  ---------------      ----- ------------  ---------------
    40     -3.228900   5 C  s                39      3.035804   5 C  s         
    41      3.005748   5 C  s                42     -2.929550   5 C  s         
    38     -1.578836   5 C  s                19      1.147792   2 C  s         
    18     -1.099154   2 C  s                20     -1.082575   2 C  s         
    21      0.974339   2 C  s                13     -0.788086   1 C  px        
 
 Vector   98  Occ=0.000000D+00  E= 1.153532D+01
              MO Center= -4.3D-01,  3.0D-01,  7.8D-01, r^2= 1.7D+00
   Bfn.  Coefficient  Atom+Function         Bfn.  Coefficient  Atom+Function  
  ----- ------------  ---------------      ----- ------------  ---------------
    58     -2.799504   7 C  s                57      2.689865   7 C  s         
    59      2.478413   7 C  s                60     -1.978486   7 C  s         
    85     -1.554542  12 C  s                84      1.527505  12 C  s         
    56     -1.401674   7 C  s                86      1.290404  12 C  s         
     4      0.934335   1 C  s                 5     -0.907904   1 C  s         
 
 Vector   99  Occ=0.000000D+00  E= 1.155633D+01
              MO Center= -1.3D+00,  6.7D-01,  1.4D+00, r^2= 8.2D-01
   Bfn.  Coefficient  Atom+Function         Bfn.  Coefficient  Atom+Function  
  ----- ------------  ---------------      ----- ------------  ---------------
    85     -3.011926  12 C  s                84      2.858127  12 C  s         
    86      2.774875  12 C  s                87     -2.554475  12 C  s         
    58      1.722279   7 C  s                59     -1.651072   7 C  s         
    60      1.656236   7 C  s                57     -1.600815   7 C  s         
    83     -1.493134  12 C  s                56      0.835087   7 C  s         
 
 Vector  100  Occ=0.000000D+00  E= 1.158776D+01
              MO Center=  8.3D-01, -4.1D-01, -7.8D-01, r^2= 1.9D+00
   Bfn.  Coefficient  Atom+Function         Bfn.  Coefficient  Atom+Function  
  ----- ------------  ---------------      ----- ------------  ---------------
     6      2.577361   1 C  s                 4      2.346283   1 C  s         
     5     -2.295141   1 C  s                 3     -2.186875   1 C  s         
    21     -2.154423   2 C  s                19     -1.984293   2 C  s         
    42     -1.971773   5 C  s                20      1.930685   2 C  s         
    18      1.873872   2 C  s                60      1.391227   7 C  s         
 
 Vector  101  Occ=0.000000D+00  E= 6.217296D+01
              MO Center=  1.4D+00, -6.2D-01, -1.0D+00, r^2= 6.2D-01
   Bfn.  Coefficient  Atom+Function         Bfn.  Coefficient  Atom+Function  
  ----- ------------  ---------------      ----- ------------  ---------------
    17      2.145155   2 C  s                 2      1.961866   1 C  s         
    18     -1.620080   2 C  s                 3     -1.484748   1 C  s         
    16     -1.273887   2 C  s                 1     -1.164429   1 C  s         
    19      1.062592   2 C  s                 4      0.985374   1 C  s         
    20     -0.844821   2 C  s                 5     -0.789286   1 C  s         
 
 Vector  102  Occ=0.000000D+00  E= 6.246510D+01
              MO Center=  9.0D-03, -1.6D-01, -6.9D-01, r^2= 1.1D+00
   Bfn.  Coefficient  Atom+Function         Bfn.  Coefficient  Atom+Function  
  ----- ------------  ---------------      ----- ------------  ---------------
    38      2.563219   5 C  s                39     -1.967193   5 C  s         
    37     -1.511433   5 C  s                40      1.357767   5 C  s         
    41     -1.195868   5 C  s                17     -1.181461   2 C  s         
    42      1.148676   5 C  s                18      0.905451   2 C  s         
     2      0.843730   1 C  s                16      0.696407   2 C  s         
 
 Vector  103  Occ=0.000000D+00  E= 6.247373D+01
              MO Center= -4.8D-01,  3.1D-01,  7.4D-01, r^2= 1.4D+00
   Bfn.  Coefficient  Atom+Function         Bfn.  Coefficient  Atom+Function  
  ----- ------------  ---------------      ----- ------------  ---------------
    56      2.332425   7 C  s                57     -1.786567   7 C  s         
    83      1.390825  12 C  s                55     -1.376424   7 C  s         
    58      1.206855   7 C  s                84     -1.063076  12 C  s         
    59     -1.007127   7 C  s                82     -0.821602  12 C  s         
     2     -0.782199   1 C  s                60      0.776813   7 C  s         
 
 Vector  104  Occ=0.000000D+00  E= 6.250572D+01
              MO Center= -1.3D+00,  6.7D-01,  1.4D+00, r^2= 6.3D-01
   Bfn.  Coefficient  Atom+Function         Bfn.  Coefficient  Atom+Function  
  ----- ------------  ---------------      ----- ------------  ---------------
    83      2.582517  12 C  s                84     -1.973848  12 C  s         
    82     -1.525027  12 C  s                56     -1.394613   7 C  s         
    85      1.351354  12 C  s                86     -1.180165  12 C  s         
    87      1.080130  12 C  s                57      1.067557   7 C  s         
    55      0.822809   7 C  s                58     -0.745622   7 C  s         
 
 Vector  105  Occ=0.000000D+00  E= 6.253590D+01
              MO Center=  7.0D-01, -3.6D-01, -7.1D-01, r^2= 1.7D+00
   Bfn.  Coefficient  Atom+Function         Bfn.  Coefficient  Atom+Function  
  ----- ------------  ---------------      ----- ------------  ---------------
     2      1.874550   1 C  s                17     -1.561504   2 C  s         
     3     -1.443906   1 C  s                38     -1.212581   5 C  s         
    18      1.201431   2 C  s                56      1.132614   7 C  s         
     1     -1.102559   1 C  s                 6      1.077358   1 C  s         
     4      1.011926   1 C  s                 5     -0.943507   1 C  s         
 

   alpha - beta orbital overlaps 
   ----------------------------- 


   alpha      1      2      3      4      5      6      7      8      9     10
    beta      1      2      3      4      5      6      7      8      9     10
 overlap   1.000  1.000  1.000  1.000  1.000  0.995  0.994  0.997  0.995  0.995


   alpha     11     12     13     14     15     16     17     18     19     20
    beta     11     13     12     14     16     15     20     17     18     19
 overlap   0.999  0.996  0.999  0.998  0.982  0.998  0.895  0.999  0.999  0.908


   alpha     21     22     23     24     25     26     27     28     29     30
    beta     21     22     23     24     25     26     27     28     29     30
 overlap   0.997  0.999  0.995  0.995  0.999  0.999  0.998  0.999  0.998  0.999


   alpha     31     32     33     34     35     36     37     38     39     40
    beta     31     32     33     34     36     35     37     38     40     39
 overlap   0.999  0.999  0.999  0.999  0.994  0.997  0.988  0.984  0.945  0.994


   alpha     41     42     43     44     45     46     47     48     49     50
    beta     41     42     43     44     46     45     47     48     49     50
 overlap   0.997  0.955  0.996  0.996  0.890  0.896  1.000  0.999  0.997  0.994


   alpha     51     52     53     54     55     56     57     58     59     60
    beta     51     52     53     54     55     56     57     58     59     60
 overlap   0.996  0.998  0.998  0.994  0.994  0.996  0.999  0.997  0.995  0.997


   alpha     61     62     63     64     65     66     67     68     69     70
    beta     61     62     63     64     65     66     67     68     69     70
 overlap   0.998  0.998  0.999  0.999  0.999  0.983  0.999  0.999  0.975  0.998


   alpha     71     72     73     74     75     76     77     78     79     80
    beta     71     72     73     74     75     76     77     78     79     80
 overlap   0.990  0.997  0.973  0.972  0.998  1.000  1.000  1.000  1.000  1.000


   alpha     81     82     83     84     85     86     87     88     89     90
    beta     81     82     83     84     85     86     87     88     89     90
 overlap   0.999  0.997  0.998  0.998  0.998  0.996  0.996  1.000  0.998  1.000


   alpha     91     92     93     94     95     96     97     98     99    100
    beta     91     92     93     94     95     96     97     98     99    100
 overlap   0.998  0.999  1.000  0.999  0.999  1.000  0.994  0.994  1.000  0.996


   alpha    101    102    103    104    105
    beta    101    102    103    104    105
 overlap   1.000  0.998  0.998  1.000  0.999

     --------------------------
     Expectation value of S2:  
     --------------------------
      <S2> =      0.7517 (Exact =     0.7500)
 

 center of mass
 --------------
 x =   0.05025293 y =  -0.02671486 z =  -0.05523743

 moments of inertia (a.u.)
 ------------------
         431.498182111194         167.985783334940         256.121809800997
         167.985783334940         745.083091304542        -144.690525631379
         256.121809800997        -144.690525631379         507.211830691397
 
     Multipole analysis of the density
     ---------------------------------
 
     L   x y z        total         alpha         beta         nuclear
     -   - - -        -----         -----         ----         -------
     0   0 0 0      1.000000    -20.000000    -19.000000     40.000000
 
     1   1 0 0      0.938996     -0.335801      1.274797     -0.000000
     1   0 1 0     -0.491373      0.128965     -0.620338     -0.000000
     1   0 0 1     -0.998717      0.157212     -1.155929     -0.000000
 
     2   2 0 0    -13.424145   -137.730739   -129.258250    253.564843
     2   1 1 0     -3.201448     49.539285     47.116875    -99.857608
     2   1 0 1     -3.504416     74.326840     71.005716   -148.836972
     2   0 2 0    -20.658077    -44.118630    -40.663967     64.124520
     2   0 1 1      2.375729    -42.207553    -40.900775     85.484056
     2   0 0 2    -16.056450   -113.813838   -109.637358    207.394746
 

 Task  times  cpu:       72.3s     wall:       74.5s
 
 
                                NWChem Input Module
                                -------------------
 
 
 Summary of allocated global arrays
-----------------------------------
  No active global arrays



                         GA Statistics for process    0
                         ------------------------------

       create   destroy   get      put      acc     scatter   gather  read&inc
calls: 3412     3412     6.90e+05 2.10e+04 4.90e+05    0        0     4142     
number of processes/call 8.19e+00 7.51e+01 6.50e+00 0.00e+00 0.00e+00
bytes total:             9.44e+08 1.11e+08 4.93e+08 0.00e+00 0.00e+00 3.31e+04
bytes remote:            7.92e+08 6.49e+07 4.33e+08 0.00e+00 0.00e+00 0.00e+00
Max memory consumed for GA by this process: 689280 bytes
 
 
 
                                     CITATION
                                     --------
                Please cite the following reference when publishing
                           results obtained with NWChem:
 
          E. Apr, E. J. Bylaska, W. A. de Jong, N. Govind, K. Kowalski,
       T. P. Straatsma, M. Valiev, H. J. J. van Dam, Y. Alexeev, J. Anchell,
       V. Anisimov, F. W. Aquino, R. Atta-Fynn, J. Autschbach, N. P. Bauman,
     J. C. Becca, D. E. Bernholdt, K. Bhaskaran-Nair, S. Bogatko, P. Borowski,
        J. Boschen, J. Brabec, A. Bruner, E. Caut, Y. Chen, G. N. Chuev,
      C. J. Cramer, J. Daily, M. J. O. Deegan, T. H. Dunning Jr., M. Dupuis,
   K. G. Dyall, G. I. Fann, S. A. Fischer, A. Fonari, H. Frchtl, L. Gagliardi,
      J. Garza, N. Gawande, S. Ghosh, K. Glaesemann, A. W. Gtz, J. Hammond,
       V. Helms, E. D. Hermes, K. Hirao, S. Hirata, M. Jacquelin, L. Jensen,
   B. G. Johnson, H. Jnsson, R. A. Kendall, M. Klemm, R. Kobayashi, V. Konkov,
      S. Krishnamoorthy, M. Krishnan, Z. Lin, R. D. Lins, R. J. Littlefield,
      A. J. Logsdail, K. Lopata, W. Ma, A. V. Marenich, J. Martin del Campo,
   D. Mejia-Rodriguez, J. E. Moore, J. M. Mullin, T. Nakajima, D. R. Nascimento,
    J. A. Nichols, P. J. Nichols, J. Nieplocha, A. Otero-de-la-Roza, B. Palmer,
    A. Panyala, T. Pirojsirikul, B. Peng, R. Peverati, J. Pittner, L. Pollack,
   R. M. Richard, P. Sadayappan, G. C. Schatz, W. A. Shelton, D. W. Silverstein,
   D. M. A. Smith, T. A. Soares, D. Song, M. Swart, H. L. Taylor, G. S. Thomas,
            V. Tipparaju, D. G. Truhlar, K. Tsemekhman, T. Van Voorhis,
     . Vzquez-Mayagoitia, P. Verma, O. Villa, A. Vishnu, K. D. Vogiatzis,
        D. Wang, J. H. Weare, M. J. Williamson, T. L. Windus, K. Woliski,
        A. T. Wong, Q. Wu, C. Yang, Q. Yu, M. Zacharias, Z. Zhang, Y. Zhao,
                                and R. J. Harrison
                        "NWChem: Past, present, and future
                         J. Chem. Phys. 152, 184102 (2020)
                               doi:10.1063/5.0004997
 
                                      AUTHORS
                                      -------
     E. Apra, E. J. Bylaska, N. Govind, K. Kowalski, M. Valiev, W. A. de Jong,
      T. P. Straatsma, H. J. J. van Dam, D. Wang, T. L. Windus, N. P. Bauman,
       A. Panyala, J. Hammond, J. Autschbach, K. Bhaskaran-Nair, J. Brabec,
    K. Lopata, S. A. Fischer, S. Krishnamoorthy, M. Jacquelin, W. Ma, M. Klemm,
       O. Villa, Y. Chen, V. Anisimov, F. Aquino, S. Hirata, M. T. Hackler,
           Eric Hermes, L. Jensen, J. E. Moore, J. C. Becca, V. Konjkov,
            D. Mejia-Rodriguez, T. Risthaus, M. Malagoli, A. Marenich,
   A. Otero-de-la-Roza, J. Mullin, P. Nichols, R. Peverati, J. Pittner, Y. Zhao,
        P.-D. Fan, A. Fonari, M. J. Williamson, R. J. Harrison, J. R. Rehr,
      M. Dupuis, D. Silverstein, D. M. A. Smith, J. Nieplocha, V. Tipparaju,
      M. Krishnan, B. E. Van Kuiken, A. Vazquez-Mayagoitia, M. Swart, Q. Wu,
   T. Van Voorhis, A. A. Auer, M. Nooijen, L. D. Crosby, E. Brown, G. Cisneros,
     G. I. Fann, H. Fruchtl, J. Garza, K. Hirao, R. A. Kendall, J. A. Nichols,
       K. Tsemekhman, K. Wolinski, J. Anchell, D. E. Bernholdt, P. Borowski,
       T. Clark, D. Clerc, H. Dachsel, M. J. O. Deegan, K. Dyall, D. Elwood,
      E. Glendening, M. Gutowski, A. C. Hess, J. Jaffe, B. G. Johnson, J. Ju,
        R. Kobayashi, R. Kutteh, Z. Lin, R. Littlefield, X. Long, B. Meng,
      T. Nakajima, S. Niu, L. Pollack, M. Rosing, K. Glaesemann, G. Sandrone,
      M. Stave, H. Taylor, G. Thomas, J. H. van Lenthe, A. T. Wong, Z. Zhang.

 Total times  cpu:       72.3s     wall:       74.5s
