 
             Northwest Computational Chemistry Package (NWChem) 7.0.0
             --------------------------------------------------------
 
 
                    Environmental Molecular Sciences Laboratory
                       Pacific Northwest National Laboratory
                                Richland, WA 99352
 
                              Copyright (c) 1994-2020
                       Pacific Northwest National Laboratory
                            Battelle Memorial Institute
 
             NWChem is an open-source computational chemistry package
                        distributed under the terms of the
                      Educational Community License (ECL) 2.0
             A copy of the license is included with this distribution
                              in the LICENSE.TXT file
 
                                  ACKNOWLEDGMENT
                                  --------------

            This software and its documentation were developed at the
            EMSL at Pacific Northwest National Laboratory, a multiprogram
            national laboratory, operated for the U.S. Department of Energy
            by Battelle under Contract Number DE-AC05-76RL01830. Support
            for this work was provided by the Department of Energy Office
            of Biological and Environmental Research, Office of Basic
            Energy Sciences, and the Office of Advanced Scientific Computing.


                                NWChem Input Module
                                -------------------
 
 
 Summary of "ao basis" -> "" (spherical)
 ------------------------------------------------------------------------------
       Tag                 Description            Shells   Functions and Types
 ---------------- ------------------------------  ------  ---------------------
 *                        ahlrichs_vtz                on all atoms 



 Scaling coordinates for geometry "geometry" by  1.889725989
 (inverse scale =  0.529177249)

 
 
                             Geometry "geometry" -> ""
                             -------------------------
 
 Output coordinates in angstroms (scale by  1.889725989 to convert to a.u.)
 
  No.       Tag          Charge          X              Y              Z
 ---- ---------------- ---------- -------------- -------------- --------------
    1 C                    6.0000    -0.58840700     0.68908573    -0.28219464
    2 C                    6.0000     0.23448237    -0.17826608    -0.90215080
    3 H                    1.0000    -1.15509039     1.38648161    -0.91000124
    4 C                    6.0000    -0.83301387     0.82390645     1.19649085
    5 H                    1.0000     0.28660177    -0.13315885    -1.99617214
    6 C                    6.0000     1.11055643    -1.22446609    -0.26774312
    7 H                    1.0000    -0.24823983     0.11011743     1.79122587
    8 H                    1.0000    -1.89805859     0.66613611     1.43556382
    9 H                    1.0000    -0.57998161     1.83862330     1.54675577
   10 H                    1.0000     0.85183963    -2.23122935    -0.63631517
   11 H                    1.0000     1.03088578    -1.23926352     0.82706518
   12 H                    1.0000     2.17033559    -1.05926679    -0.52453570
 
      Atomic Mass 
      ----------- 
 
      C                 12.000000
      H                  1.007825
 

 Effective nuclear repulsion energy (a.u.)     116.8912401626

            Nuclear Dipole moment (a.u.) 
            ----------------------------
        X                 Y               Z
 ---------------- ---------------- ----------------
     0.0000000000    -0.0000000000     0.0000000000
 
 
            XYZ format geometry
            -------------------
    12
 geometry
 C                    -0.58840700     0.68908573    -0.28219464
 C                     0.23448237    -0.17826608    -0.90215080
 H                    -1.15509039     1.38648161    -0.91000124
 C                    -0.83301387     0.82390645     1.19649085
 H                     0.28660177    -0.13315885    -1.99617214
 C                     1.11055643    -1.22446609    -0.26774312
 H                    -0.24823983     0.11011743     1.79122587
 H                    -1.89805859     0.66613611     1.43556382
 H                    -0.57998161     1.83862330     1.54675577
 H                     0.85183963    -2.23122935    -0.63631517
 H                     1.03088578    -1.23926352     0.82706518
 H                     2.17033559    -1.05926679    -0.52453570
 
 ==============================================================================
                                internuclear distances
 ------------------------------------------------------------------------------
       center one      |      center two      | atomic units |  angstroms
 ------------------------------------------------------------------------------
    2 C                |   1 C                |     2.54503  |     1.34677
    3 H                |   1 C                |     2.07150  |     1.09619
    4 C                |   1 C                |     2.84372  |     1.50483
    5 H                |   2 C                |     2.07150  |     1.09619
    6 C                |   2 C                |     2.84372  |     1.50483
    7 H                |   4 C                |     2.07454  |     1.09780
    8 H                |   4 C                |     2.08416  |     1.10289
    9 H                |   4 C                |     2.08416  |     1.10289
   10 H                |   6 C                |     2.08415  |     1.10288
   11 H                |   6 C                |     2.07455  |     1.09780
   12 H                |   6 C                |     2.08416  |     1.10289
 ------------------------------------------------------------------------------
                         number of included internuclear distances:         11
 ==============================================================================



 ==============================================================================
                                 internuclear angles
 ------------------------------------------------------------------------------
        center 1       |       center 2       |       center 3       |  degrees
 ------------------------------------------------------------------------------
    2 C                |   1 C                |   3 H                |   117.51
    2 C                |   1 C                |   4 C                |   127.54
    3 H                |   1 C                |   4 C                |   114.94
    1 C                |   2 C                |   5 H                |   117.51
    1 C                |   2 C                |   6 C                |   127.55
    5 H                |   2 C                |   6 C                |   114.94
    1 C                |   4 C                |   7 H                |   112.80
    1 C                |   4 C                |   8 H                |   110.93
    1 C                |   4 C                |   9 H                |   110.93
    7 H                |   4 C                |   8 H                |   107.70
    7 H                |   4 C                |   9 H                |   107.70
    8 H                |   4 C                |   9 H                |   106.52
    2 C                |   6 C                |  10 H                |   110.93
    2 C                |   6 C                |  11 H                |   112.80
    2 C                |   6 C                |  12 H                |   110.92
   10 H                |   6 C                |  11 H                |   107.69
   10 H                |   6 C                |  12 H                |   106.52
   11 H                |   6 C                |  12 H                |   107.70
 ------------------------------------------------------------------------------
                            number of included internuclear angles:         18
 ==============================================================================



                              Aldehyde and Ketone set
                              -----------------------
 
                                 NWChem DFT Module
                                 -----------------
 
 
                              Aldehyde and Ketone set
 
 
                      Basis "ao basis" -> "ao basis" (spherical)
                      -----
  C (Carbon)
  ----------
            Exponent  Coefficients 
       -------------- ---------------------------------------------------------
  1 S  8.50603840E+03  0.000534
  1 S  1.27573290E+03  0.004125
  1 S  2.90311870E+02  0.021171
  1 S  8.20562000E+01  0.082418
  1 S  2.64796410E+01  0.240129
 
  2 S  9.24145850E+00  1.000000
 
  3 S  3.36435300E+00  1.000000
 
  4 S  8.71741640E-01  1.000000
 
  5 S  3.63523520E-01  1.000000
 
  6 S  1.28731350E-01  1.000000
 
  7 P  3.47094960E+01  0.005330
  7 P  7.95908830E+00  0.035866
  7 P  2.37869720E+00  0.142003
  7 P  8.15400650E-01  0.342031
 
  8 P  2.89537850E-01  1.000000
 
  9 P  1.00847540E-01  1.000000
 
  H (Hydrogen)
  ------------
            Exponent  Coefficients 
       -------------- ---------------------------------------------------------
  1 S  3.40613410E+01  0.006025
  1 S  5.12357460E+00  0.045021
  1 S  1.16466260E+00  0.201897
 
  2 S  3.27230410E-01  1.000000
 
  3 S  1.03072410E-01  1.000000
 


 Summary of "ao basis" -> "ao basis" (spherical)
 ------------------------------------------------------------------------------
       Tag                 Description            Shells   Functions and Types
 ---------------- ------------------------------  ------  ---------------------
 C                        ahlrichs vtz               9       15   6s3p
 H                        ahlrichs vtz               3        3   3s




 Summary of "ao basis" -> "ao basis" (spherical)
 ------------------------------------------------------------------------------
       Tag                 Description            Shells   Functions and Types
 ---------------- ------------------------------  ------  ---------------------
 C                        ahlrichs vtz               9       15   6s3p
 H                        ahlrichs vtz               3        3   3s


  Caching 1-el integrals 
 
            General Information
            -------------------
          SCF calculation type: DFT
          Wavefunction type:  spin polarized.
          No. of atoms     :    12
          No. of electrons :    31
           Alpha electrons :    16
            Beta electrons :    15
          Charge           :     1
          Spin multiplicity:     2
          Use of symmetry is: off; symmetry adaption is: off
          Maximum number of iterations: 999
          This is a Direct SCF calculation.
          AO basis - number of functions:    84
                     number of shells:    60
          Convergence on energy requested:  1.00D-08
          Convergence on density requested:  1.00D-07
          Convergence on gradient requested:  1.00D-06
 
              XC Information
              --------------
                        PBE96 Method XC Functional
          PerdewBurkeErnzerhof Exchange Functional  1.000          
            Perdew 1991 LDA Correlation Functional  1.000 local    
           PerdewBurkeErnz. Correlation Functional  1.000 non-local
 
             Grid Information
             ----------------
          Grid used for XC integration:  fine      
          Radial quadrature: Mura-Knowles        
          Angular quadrature: Lebedev. 
          Tag              B.-S. Rad. Rad. Pts. Rad. Cut. Ang. Pts.
          ---              ---------- --------- --------- ---------
          C                   0.70       70          11.0       590
          H                   0.35       60          13.0       590
          Grid pruning is: on 
          Number of quadrature shells:   760
          Spatial weights used:  Erf1
 
          Convergence Information
          -----------------------
          Convergence aids based upon iterative change in 
          total energy or number of iterations. 
          Levelshifting, if invoked, occurs when the 
          HOMO/LUMO gap drops below (HL_TOL):  1.00D-02
          DIIS, if invoked, will attempt to extrapolate 
          using up to (NFOCK): 10 stored Fock matrices.

                    Damping( 0%)  Levelshifting(0.5)       DIIS
                  --------------- ------------------- ---------------
          dE  on:    start            ASAP                start   
          dE off:    2 iters        999 iters           999 iters 

 
      Screening Tolerance Information
      -------------------------------
          Density screening/tol_rho:  1.00D-12
          AO Gaussian exp screening on grid/accAOfunc:  18
          CD Gaussian exp screening on grid/accCDfunc:  20
          XC Gaussian exp screening on grid/accXCfunc:  20
          Schwarz screening/accCoul:  1.00D-12

      Dispersion Parameters
      ---------------------

           DFT-D3BJ Model   
          s6 scale factor  :        1.000000000000
          s8 scale factor  :        0.787500000000
          a1 parameter     :        0.428900000000
          a2 parameter     :        4.440700000000
              vdW contrib  :       -0.007625582458


 Forcing the number of linearly dependent vectors to be  0
 
      Superposition of Atomic Density Guess
      -------------------------------------
 
 Sum of atomic energies:        -154.68305411
   Time after variat. SCF:      0.1
   Time prior to 1st pass:      0.1

 Grid_pts file          = ./17_cisMeCHCHMe.gridpts.00
 Record size in doubles =  12289        No. of grid_pts per rec  =   3070
 Max. records in memory =     12        Max. recs in file   =  67550051

 Grid integrated density:      31.999970016069
 Requested integration accuracy:   0.10E-06

           Memory utilization after 1st SCF pass: 
           Heap Space remaining (MW):        0.00                 218
          Stack Space remaining (MW):      288.36           288357196

   convergence    iter        energy       DeltaE   RMS-Dens  Diis-err    time
 ---------------- ----- ----------------- --------- --------- ---------  ------
 d= 0,ls=0.0,diis     1   -157.3945851625 -2.74D+02  1.59D-02  1.18D+01     0.3
                                                     1.50D-02  1.04D+01
 Grid integrated density:      30.999991804362
 Requested integration accuracy:   0.10E-06
 d= 0,ls=0.0,diis     2   -156.5812223492  8.13D-01  6.76D-03  2.17D-01     0.6
                                                     6.13D-03  2.01D-01
 Grid integrated density:      30.999985930512
 Requested integration accuracy:   0.10E-06
 d= 0,ls=0.0,diis     3   -156.4955724263  8.56D-02  3.88D-03  3.39D-01     0.9
                                                     3.99D-03  3.40D-01
 Grid integrated density:      30.999988789642
 Requested integration accuracy:   0.10E-06
 d= 0,ls=0.0,diis     4   -156.6762954735 -1.81D-01  8.63D-04  1.11D-02     1.2
                                                     9.26D-04  1.05D-02
 Grid integrated density:      30.999988633856
 Requested integration accuracy:   0.10E-06
 d= 0,ls=0.0,diis     5   -156.6817205898 -5.43D-03  3.07D-04  1.27D-03     1.4
                                                     3.32D-04  1.29D-03
 Grid integrated density:      30.999988734668
 Requested integration accuracy:   0.10E-06
 d= 0,ls=0.0,diis     6   -156.6825480897 -8.27D-04  4.90D-05  1.56D-05     1.7
                                                     4.55D-05  1.23D-05
 Grid integrated density:      30.999988700192
 Requested integration accuracy:   0.10E-06
 d= 0,ls=0.0,diis     7   -156.6825582906 -1.02D-05  7.53D-06  1.83D-07     2.0
                                                     6.36D-06  8.19D-08
 Grid integrated density:      30.999988703161
 Requested integration accuracy:   0.10E-06
 d= 0,ls=0.0,diis     8   -156.6825584247 -1.34D-07  2.61D-06  2.18D-08     2.3
                                                     2.50D-06  2.02D-08
 Grid integrated density:      30.999988702095
 Requested integration accuracy:   0.10E-06
 d= 0,ls=0.0,diis     9   -156.6825584455 -2.07D-08  4.48D-07  5.76D-10     2.6
                                                     5.81D-07  1.13D-09
 Grid integrated density:      30.999988702179
 Requested integration accuracy:   0.10E-06
 d= 0,ls=0.0,diis    10   -156.6825584463 -8.81D-10  1.37D-07  6.60D-11     2.8
                                                     1.22D-07  5.85D-11
 Grid integrated density:      30.999988702174
 Requested integration accuracy:   0.10E-06
 d= 0,ls=0.0,diis    11   -156.6825584464 -5.73D-11  2.37D-08  1.89D-12     3.1
                                                     2.93D-08  2.92D-12


         Total DFT energy =     -156.682558446392
      One electron energy =     -433.233318475080
           Coulomb energy =      183.744406176434
          Exchange energy =      -23.095208592151
       Correlation energy =       -0.982052135754
 Nuclear repulsion energy =      116.891240162616

    Dispersion correction =       -0.007625582458

 Numeric. integr. density =       30.999988702174

     Total iterative time =      3.0s


 
                    DFT Final Alpha Molecular Orbital Analysis
                    ------------------------------------------
 
 Vector    1  Occ=1.000000D+00  E=-1.018325D+01
              MO Center= -1.8D-01,  2.6D-01, -5.9D-01, r^2= 4.8D-01
   Bfn.  Coefficient  Atom+Function         Bfn.  Coefficient  Atom+Function  
  ----- ------------  ---------------      ----- ------------  ---------------
     2      0.299712   1 C  s                17      0.299761   2 C  s         
     3      0.254493   1 C  s                18      0.254534   2 C  s         
     1      0.218268   1 C  s                16      0.218303   2 C  s         
     4      0.040417   1 C  s                19      0.040424   2 C  s         
 
 Vector    2  Occ=1.000000D+00  E=-1.018263D+01
              MO Center= -1.8D-01,  2.6D-01, -5.9D-01, r^2= 4.8D-01
   Bfn.  Coefficient  Atom+Function         Bfn.  Coefficient  Atom+Function  
  ----- ------------  ---------------      ----- ------------  ---------------
     2      0.300003   1 C  s                17     -0.299954   2 C  s         
     3      0.254077   1 C  s                18     -0.254036   2 C  s         
     1      0.218316   1 C  s                16     -0.218281   2 C  s         
     4      0.041689   1 C  s                19     -0.041683   2 C  s         
 
 Vector    3  Occ=1.000000D+00  E=-1.010695D+01
              MO Center=  5.6D-01, -6.5D-01,  1.4D-01, r^2= 2.1D+00
   Bfn.  Coefficient  Atom+Function         Bfn.  Coefficient  Atom+Function  
  ----- ------------  ---------------      ----- ------------  ---------------
    53      0.359614   6 C  s                54      0.304641   6 C  s         
    52      0.261771   6 C  s                35     -0.225090   4 C  s         
    36     -0.190640   4 C  s                34     -0.163840   4 C  s         
    55      0.049069   6 C  s                37     -0.030858   4 C  s         
 
 Vector    4  Occ=1.000000D+00  E=-1.010695D+01
              MO Center= -2.9D-01,  2.5D-01,  7.8D-01, r^2= 2.1D+00
   Bfn.  Coefficient  Atom+Function         Bfn.  Coefficient  Atom+Function  
  ----- ------------  ---------------      ----- ------------  ---------------
    35      0.359592   4 C  s                36      0.304709   4 C  s         
    34      0.261774   4 C  s                53      0.225056   6 C  s         
    54      0.190749   6 C  s                52      0.163844   6 C  s         
    37      0.048768   4 C  s                55      0.030377   6 C  s         
 
 Vector    5  Occ=1.000000D+00  E=-9.996055D-01
              MO Center= -1.3D-01,  1.8D-01, -4.3D-01, r^2= 1.4D+00
   Bfn.  Coefficient  Atom+Function         Bfn.  Coefficient  Atom+Function  
  ----- ------------  ---------------      ----- ------------  ---------------
     5      0.359686   1 C  s                20      0.359685   2 C  s         
    38      0.146807   4 C  s                56      0.146807   6 C  s         
     3     -0.106936   1 C  s                18     -0.106937   2 C  s         
     2     -0.083595   1 C  s                17     -0.083595   2 C  s         
     4      0.079941   1 C  s                19      0.079942   2 C  s         
 
 Vector    6  Occ=1.000000D+00  E=-8.895276D-01
              MO Center=  3.9D-02, -5.7D-02,  1.3D-01, r^2= 3.2D+00
   Bfn.  Coefficient  Atom+Function         Bfn.  Coefficient  Atom+Function  
  ----- ------------  ---------------      ----- ------------  ---------------
    38      0.329689   4 C  s                56     -0.329706   6 C  s         
     5      0.207076   1 C  s                20     -0.207069   2 C  s         
    39      0.094610   4 C  s                57     -0.094614   6 C  s         
    36     -0.087637   4 C  s                54      0.087642   6 C  s         
    35     -0.070936   4 C  s                53      0.070940   6 C  s         
 
 Vector    7  Occ=1.000000D+00  E=-8.377032D-01
              MO Center=  4.4D-02, -6.3D-02,  1.5D-01, r^2= 3.4D+00
   Bfn.  Coefficient  Atom+Function         Bfn.  Coefficient  Atom+Function  
  ----- ------------  ---------------      ----- ------------  ---------------
    38      0.317980   4 C  s                56      0.317956   6 C  s         
     5     -0.142058   1 C  s                20     -0.142065   2 C  s         
     9      0.136840   1 C  pz               23     -0.114471   2 C  py        
    39      0.104121   4 C  s                57      0.104114   6 C  s         
    22      0.099834   2 C  px               12      0.087797   1 C  pz        
 
 Vector    8  Occ=1.000000D+00  E=-7.136398D-01
              MO Center= -7.4D-02,  1.1D-01, -2.5D-01, r^2= 3.7D+00
   Bfn.  Coefficient  Atom+Function         Bfn.  Coefficient  Atom+Function  
  ----- ------------  ---------------      ----- ------------  ---------------
     5      0.298556   1 C  s                20     -0.298559   2 C  s         
    38     -0.179682   4 C  s                56      0.179696   6 C  s         
    42     -0.117432   4 C  pz               32      0.102403   3 H  s         
    50     -0.102403   5 H  s                24      0.099802   2 C  pz        
     6      0.096362   1 C  s                21     -0.096364   2 C  s         
 
 Vector    9  Occ=1.000000D+00  E=-6.799864D-01
              MO Center= -1.6D-01,  2.4D-01, -5.5D-01, r^2= 2.5D+00
   Bfn.  Coefficient  Atom+Function         Bfn.  Coefficient  Atom+Function  
  ----- ------------  ---------------      ----- ------------  ---------------
    24      0.242244   2 C  pz               27      0.194768   2 C  pz        
     8     -0.182517   1 C  py                7      0.155341   1 C  px        
    11     -0.137405   1 C  py               10      0.114971   1 C  px        
    31     -0.103547   3 H  s                32     -0.104056   3 H  s         
    49     -0.103543   5 H  s                50     -0.104052   5 H  s         
 
 Vector   10  Occ=1.000000D+00  E=-6.133182D-01
              MO Center=  4.6D-02, -6.6D-02,  1.5D-01, r^2= 3.0D+00
   Bfn.  Coefficient  Atom+Function         Bfn.  Coefficient  Atom+Function  
  ----- ------------  ---------------      ----- ------------  ---------------
     9      0.219059   1 C  pz               42     -0.209836   4 C  pz        
    23     -0.181309   2 C  py               12      0.177130   1 C  pz        
    22      0.157810   2 C  px               45     -0.150816   4 C  pz        
    26     -0.140103   2 C  py               59      0.132145   6 C  py        
    60     -0.123802   6 C  pz               25      0.120700   2 C  px        
 
 Vector   11  Occ=1.000000D+00  E=-6.107853D-01
              MO Center=  2.3D-02, -3.3D-02,  7.7D-02, r^2= 3.6D+00
   Bfn.  Coefficient  Atom+Function         Bfn.  Coefficient  Atom+Function  
  ----- ------------  ---------------      ----- ------------  ---------------
    40      0.143130   4 C  px               58      0.143167   6 C  px        
     7      0.134436   1 C  px               22      0.134388   2 C  px        
    41      0.127174   4 C  py               59      0.127167   6 C  py        
    43      0.125990   4 C  px               61      0.126018   6 C  px        
    10      0.122811   1 C  px               25      0.122775   2 C  px        
 
 Vector   12  Occ=1.000000D+00  E=-5.801659D-01
              MO Center=  1.2D-01, -1.7D-01,  4.0D-01, r^2= 4.5D+00
   Bfn.  Coefficient  Atom+Function         Bfn.  Coefficient  Atom+Function  
  ----- ------------  ---------------      ----- ------------  ---------------
    40      0.174647   4 C  px               58     -0.174619   6 C  px        
    41      0.155133   4 C  py               43      0.155873   4 C  px        
    59     -0.155151   6 C  py               61     -0.155849   6 C  px        
    44      0.138457   4 C  py               62     -0.138472   6 C  py        
    71     -0.128935   8 H  s                74      0.128813   9 H  s         
 
 Vector   13  Occ=1.000000D+00  E=-5.632152D-01
              MO Center=  7.7D-02, -1.1D-01,  2.6D-01, r^2= 3.8D+00
   Bfn.  Coefficient  Atom+Function         Bfn.  Coefficient  Atom+Function  
  ----- ------------  ---------------      ----- ------------  ---------------
    41      0.156641   4 C  py               40     -0.147118   4 C  px        
    59      0.144795   6 C  py               58     -0.138913   6 C  px        
    44      0.135841   4 C  py                9     -0.133830   1 C  pz        
    43     -0.127235   4 C  px               24      0.126379   2 C  pz        
    62      0.122868   6 C  py               60      0.121496   6 C  pz        
 
 Vector   14  Occ=1.000000D+00  E=-5.499886D-01
              MO Center=  1.1D-01, -1.5D-01,  3.6D-01, r^2= 3.8D+00
   Bfn.  Coefficient  Atom+Function         Bfn.  Coefficient  Atom+Function  
  ----- ------------  ---------------      ----- ------------  ---------------
    60      0.170020   6 C  pz               41     -0.150217   4 C  py        
    68      0.147870   7 H  s                80      0.147853  11 H  s         
    63      0.146350   6 C  pz               44     -0.133389   4 C  py        
    40      0.132466   4 C  px               24     -0.126171   2 C  pz        
     8      0.120082   1 C  py               43      0.118361   4 C  px        
 
 Vector   15  Occ=1.000000D+00  E=-5.249805D-01
              MO Center=  1.8D-02, -2.6D-02,  6.0D-02, r^2= 3.5D+00
   Bfn.  Coefficient  Atom+Function         Bfn.  Coefficient  Atom+Function  
  ----- ------------  ---------------      ----- ------------  ---------------
    60      0.203708   6 C  pz               63      0.181151   6 C  pz        
    42     -0.175641   4 C  pz                9      0.163425   1 C  pz        
    12      0.154475   1 C  pz               24     -0.147503   2 C  pz        
    45     -0.147636   4 C  pz               32     -0.135769   3 H  s         
    50      0.135776   5 H  s                68     -0.131104   7 H  s         
 
 Vector   16  Occ=1.000000D+00  E=-4.889464D-01
              MO Center= -6.0D-02,  8.6D-02, -2.0D-01, r^2= 3.2D+00
   Bfn.  Coefficient  Atom+Function         Bfn.  Coefficient  Atom+Function  
  ----- ------------  ---------------      ----- ------------  ---------------
    10      0.195388   1 C  px               25      0.195388   2 C  px        
     7      0.193604   1 C  px               22      0.193603   2 C  px        
    11      0.173592   1 C  py               26      0.173593   2 C  py        
     8      0.172011   1 C  py               23      0.172015   2 C  py        
    71      0.112518   8 H  s                74     -0.112436   9 H  s         
 
 Vector   17  Occ=0.000000D+00  E=-2.873329D-01
              MO Center= -1.5D-01,  2.2D-01, -5.0D-01, r^2= 2.4D+00
   Bfn.  Coefficient  Atom+Function         Bfn.  Coefficient  Atom+Function  
  ----- ------------  ---------------      ----- ------------  ---------------
    13      0.321833   1 C  px               28     -0.321858   2 C  px        
    10      0.297610   1 C  px               25     -0.297609   2 C  px        
    14      0.286013   1 C  py               29     -0.285984   2 C  py        
    11      0.264427   1 C  py               26     -0.264433   2 C  py        
     7      0.260450   1 C  px               22     -0.260450   2 C  px        
 
 Vector   18  Occ=0.000000D+00  E=-1.579089D-01
              MO Center= -1.9D-01,  2.8D-01, -6.4D-01, r^2= 7.5D+00
   Bfn.  Coefficient  Atom+Function         Bfn.  Coefficient  Atom+Function  
  ----- ------------  ---------------      ----- ------------  ---------------
    39     -0.993988   4 C  s                57     -0.994006   6 C  s         
    33      0.916998   3 H  s                51      0.917049   5 H  s         
     6     -0.601582   1 C  s                21     -0.601542   2 C  s         
    72      0.505275   8 H  s                75      0.505212   9 H  s         
    78      0.505258  10 H  s                84      0.505321  12 H  s         
 
 Vector   19  Occ=0.000000D+00  E=-1.367386D-01
              MO Center=  9.2D-02, -1.3D-01,  3.1D-01, r^2= 7.1D+00
   Bfn.  Coefficient  Atom+Function         Bfn.  Coefficient  Atom+Function  
  ----- ------------  ---------------      ----- ------------  ---------------
    39      1.272017   4 C  s                57      1.271991   6 C  s         
     6     -0.875868   1 C  s                21     -0.875815   2 C  s         
    69     -0.863925   7 H  s                81     -0.863951  11 H  s         
    33      0.778084   3 H  s                51      0.778048   5 H  s         
    14     -0.284146   1 C  py               13      0.260423   1 C  px        
 
 Vector   20  Occ=0.000000D+00  E=-1.119100D-01
              MO Center= -8.3D-03,  1.2D-02, -2.7D-02, r^2= 9.8D+00
   Bfn.  Coefficient  Atom+Function         Bfn.  Coefficient  Atom+Function  
  ----- ------------  ---------------      ----- ------------  ---------------
    39      1.612283   4 C  s                57     -1.612193   6 C  s         
    33     -0.853372   3 H  s                51      0.853311   5 H  s         
    72     -0.819312   8 H  s                75     -0.819344   9 H  s         
    78      0.819291  10 H  s                84      0.819290  12 H  s         
    15     -0.678094   1 C  pz               30      0.612047   2 C  pz        
 
 Vector   21  Occ=0.000000D+00  E=-9.304272D-02
              MO Center= -1.9D-01,  2.8D-01, -6.4D-01, r^2= 7.9D+00
   Bfn.  Coefficient  Atom+Function         Bfn.  Coefficient  Atom+Function  
  ----- ------------  ---------------      ----- ------------  ---------------
     6      1.978001   1 C  s                21     -1.977897   2 C  s         
    33     -1.382538   3 H  s                51      1.382451   5 H  s         
    39     -0.796279   4 C  s                57      0.796251   6 C  s         
    66     -0.597615   6 C  pz               30      0.586591   2 C  pz        
    48      0.475331   4 C  pz               15     -0.459846   1 C  pz        
 
 Vector   22  Occ=0.000000D+00  E=-8.823120D-02
              MO Center=  8.7D-02, -1.3D-01,  2.9D-01, r^2= 8.7D+00
   Bfn.  Coefficient  Atom+Function         Bfn.  Coefficient  Atom+Function  
  ----- ------------  ---------------      ----- ------------  ---------------
    72      1.396533   8 H  s                75     -1.397971   9 H  s         
    78      1.398522  10 H  s                84     -1.396161  12 H  s         
    46      0.949513   4 C  px               64      0.950418   6 C  px        
    47      0.846107   4 C  py               65      0.844842   6 C  py        
    13     -0.287221   1 C  px               28     -0.287773   2 C  px        
 
 Vector   23  Occ=0.000000D+00  E=-8.364387D-02
              MO Center=  1.0D-01, -1.5D-01,  3.4D-01, r^2= 7.6D+00
   Bfn.  Coefficient  Atom+Function         Bfn.  Coefficient  Atom+Function  
  ----- ------------  ---------------      ----- ------------  ---------------
    69      1.128429   7 H  s                81      1.128550  11 H  s         
    72     -1.016484   8 H  s                75     -1.012723   9 H  s         
    84     -1.017287  12 H  s                78     -1.012113  10 H  s         
    47      0.907045   4 C  py               33      0.897212   3 H  s         
    51      0.897440   5 H  s                66     -0.896416   6 C  pz        
 
 Vector   24  Occ=0.000000D+00  E=-7.190601D-02
              MO Center=  1.1D-01, -1.6D-01,  3.6D-01, r^2= 5.9D+00
   Bfn.  Coefficient  Atom+Function         Bfn.  Coefficient  Atom+Function  
  ----- ------------  ---------------      ----- ------------  ---------------
     6      1.561740   1 C  s                21      1.561976   2 C  s         
    48      1.266195   4 C  pz               39     -1.081125   4 C  s         
    57     -1.081454   6 C  s                15      0.896030   1 C  pz        
    65     -0.852983   6 C  py               64      0.713339   6 C  px        
    29     -0.655315   2 C  py               66      0.624781   6 C  pz        
 
 Vector   25  Occ=0.000000D+00  E=-7.087601D-02
              MO Center=  6.8D-02, -9.9D-02,  2.3D-01, r^2= 9.5D+00
   Bfn.  Coefficient  Atom+Function         Bfn.  Coefficient  Atom+Function  
  ----- ------------  ---------------      ----- ------------  ---------------
    72      1.377108   8 H  s                75     -1.381536   9 H  s         
    78     -1.381372  10 H  s                84      1.377085  12 H  s         
    46      0.818959   4 C  px               64     -0.816425   6 C  px        
    47      0.732289   4 C  py               65     -0.735880   6 C  py        
    28      0.473682   2 C  px               13     -0.471048   1 C  px        
 
 Vector   26  Occ=0.000000D+00  E=-3.689455D-02
              MO Center=  2.8D-01, -4.0D-01,  9.3D-01, r^2= 6.1D+00
   Bfn.  Coefficient  Atom+Function         Bfn.  Coefficient  Atom+Function  
  ----- ------------  ---------------      ----- ------------  ---------------
    69      1.738208   7 H  s                81     -1.738220  11 H  s         
    39     -1.579304   4 C  s                57      1.579124   6 C  s         
    15      1.365389   1 C  pz               47      0.973260   4 C  py        
    46     -0.902703   4 C  px               29      0.862227   2 C  py        
    65      0.837910   6 C  py               64     -0.808369   6 C  px        
 
 Vector   27  Occ=0.000000D+00  E=-2.598208D-02
              MO Center=  1.1D-01, -1.6D-01,  3.8D-01, r^2= 5.0D+00
   Bfn.  Coefficient  Atom+Function         Bfn.  Coefficient  Atom+Function  
  ----- ------------  ---------------      ----- ------------  ---------------
    46      0.766138   4 C  px               64      0.767019   6 C  px        
    47      0.674974   4 C  py               65      0.673810   6 C  py        
    72      0.319275   8 H  s                84     -0.319198  12 H  s         
    75     -0.313482   9 H  s                78      0.313589  10 H  s         
    71      0.264274   8 H  s                83     -0.264263  12 H  s         
 
 Vector   28  Occ=0.000000D+00  E= 1.249264D-03
              MO Center= -4.2D-02,  6.1D-02, -1.4D-01, r^2= 8.4D+00
   Bfn.  Coefficient  Atom+Function         Bfn.  Coefficient  Atom+Function  
  ----- ------------  ---------------      ----- ------------  ---------------
    30      3.088205   2 C  pz               33     -2.636095   3 H  s         
    51      2.636213   5 H  s                 6     -2.518486   1 C  s         
    21      2.518367   2 C  s                14      1.912347   1 C  py        
    15     -1.887969   1 C  pz               48     -1.630094   4 C  pz        
    13     -1.540005   1 C  px               65     -1.384110   6 C  py        
 
 Vector   29  Occ=0.000000D+00  E= 7.662751D-03
              MO Center= -1.3D-01,  1.9D-01, -4.4D-01, r^2= 7.4D+00
   Bfn.  Coefficient  Atom+Function         Bfn.  Coefficient  Atom+Function  
  ----- ------------  ---------------      ----- ------------  ---------------
    15      0.909422   1 C  pz               66     -0.819901   6 C  pz        
    29     -0.673949   2 C  py               28      0.571512   2 C  px        
    48     -0.518249   4 C  pz               47      0.499095   4 C  py        
    39     -0.471081   4 C  s                57     -0.470551   6 C  s         
    46     -0.400287   4 C  px               68      0.327052   7 H  s         
 
 Vector   30  Occ=0.000000D+00  E= 3.990000D-02
              MO Center= -9.3D-02,  1.3D-01, -3.1D-01, r^2= 6.6D+00
   Bfn.  Coefficient  Atom+Function         Bfn.  Coefficient  Atom+Function  
  ----- ------------  ---------------      ----- ------------  ---------------
    46      0.810221   4 C  px               64      0.811901   6 C  px        
    13     -0.720038   1 C  px               28     -0.720863   2 C  px        
    47      0.723054   4 C  py               65      0.720894   6 C  py        
    14     -0.645961   1 C  py               29     -0.644921   2 C  py        
    10      0.295085   1 C  px               25      0.295075   2 C  px        
 
 Vector   31  Occ=0.000000D+00  E= 4.500714D-02
              MO Center=  9.1D-02, -1.3D-01,  3.1D-01, r^2= 6.3D+00
   Bfn.  Coefficient  Atom+Function         Bfn.  Coefficient  Atom+Function  
  ----- ------------  ---------------      ----- ------------  ---------------
    47      0.758423   4 C  py               46     -0.713711   4 C  px        
    65     -0.703235   6 C  py                6     -0.675232   1 C  s         
    21     -0.675243   2 C  s                64      0.674492   6 C  px        
    66     -0.586863   6 C  pz               45     -0.538576   4 C  pz        
    33      0.515566   3 H  s                51      0.515884   5 H  s         
 
 Vector   32  Occ=0.000000D+00  E= 6.203072D-02
              MO Center=  1.5D-01, -2.1D-01,  4.8D-01, r^2= 9.1D+00
   Bfn.  Coefficient  Atom+Function         Bfn.  Coefficient  Atom+Function  
  ----- ------------  ---------------      ----- ------------  ---------------
    66      1.951613   6 C  pz               47      1.518548   4 C  py        
     6      1.321534   1 C  s                21     -1.321208   2 C  s         
    46     -1.303639   4 C  px               14     -1.238493   1 C  py        
    13      1.146191   1 C  px               30     -1.070149   2 C  pz        
    29     -1.008276   2 C  py               28      0.986548   2 C  px        
 
 Vector   33  Occ=0.000000D+00  E= 7.836065D-02
              MO Center= -1.7D-01,  2.4D-01, -5.5D-01, r^2= 5.3D+00
   Bfn.  Coefficient  Atom+Function         Bfn.  Coefficient  Atom+Function  
  ----- ------------  ---------------      ----- ------------  ---------------
    66      1.197751   6 C  pz               47     -0.863389   4 C  py        
    46      0.725172   4 C  px               14      0.720251   1 C  py        
    13     -0.674476   1 C  px               29     -0.667500   2 C  py        
    32      0.654039   3 H  s                50      0.653992   5 H  s         
    28      0.637899   2 C  px               30     -0.557389   2 C  pz        
 
 Vector   34  Occ=0.000000D+00  E= 9.947973D-02
              MO Center=  8.0D-02, -1.2D-01,  2.7D-01, r^2= 7.7D+00
   Bfn.  Coefficient  Atom+Function         Bfn.  Coefficient  Atom+Function  
  ----- ------------  ---------------      ----- ------------  ---------------
    13      1.611042   1 C  px               28     -1.613100   2 C  px        
    14      1.432295   1 C  py               29     -1.430087   2 C  py        
    46     -1.388377   4 C  px               64      1.388325   6 C  px        
    47     -1.233243   4 C  py               65      1.233452   6 C  py        
    71     -0.353728   8 H  s                74      0.353343   9 H  s         
 
 Vector   35  Occ=0.000000D+00  E= 1.069604D-01
              MO Center= -9.6D-02,  1.4D-01, -3.2D-01, r^2= 5.4D+00
   Bfn.  Coefficient  Atom+Function         Bfn.  Coefficient  Atom+Function  
  ----- ------------  ---------------      ----- ------------  ---------------
    29      2.359995   2 C  py               15      2.198447   1 C  pz        
    28     -2.157233   2 C  px               13     -1.716270   1 C  px        
    14      1.721901   1 C  py                6     -1.614691   1 C  s         
    21      1.614957   2 C  s                69     -1.240301   7 H  s         
    81      1.239938  11 H  s                66     -1.081907   6 C  pz        
 
 Vector   36  Occ=0.000000D+00  E= 1.237547D-01
              MO Center= -1.8D-02,  2.6D-02, -6.0D-02, r^2= 5.7D+00
   Bfn.  Coefficient  Atom+Function         Bfn.  Coefficient  Atom+Function  
  ----- ------------  ---------------      ----- ------------  ---------------
    46      0.790585   4 C  px               64     -0.789604   6 C  px        
    13      0.727512   1 C  px               28     -0.727307   2 C  px        
    47      0.698722   4 C  py               65     -0.700232   6 C  py        
    14      0.651575   1 C  py               29     -0.651622   2 C  py        
    72      0.569912   8 H  s                75     -0.567534   9 H  s         
 
 Vector   37  Occ=0.000000D+00  E= 1.525796D-01
              MO Center= -7.1D-02,  1.0D-01, -2.4D-01, r^2= 7.7D+00
   Bfn.  Coefficient  Atom+Function         Bfn.  Coefficient  Atom+Function  
  ----- ------------  ---------------      ----- ------------  ---------------
    66      2.504421   6 C  pz                6      2.221323   1 C  s         
    21      2.223628   2 C  s                30     -2.230486   2 C  pz        
    14      2.160961   1 C  py               13     -1.943618   1 C  px        
    47     -1.929942   4 C  py               46      1.649200   4 C  px        
    69     -1.488728   7 H  s                81     -1.486745  11 H  s         
 
 Vector   38  Occ=0.000000D+00  E= 1.650382D-01
              MO Center=  4.1D-02, -5.9D-02,  1.4D-01, r^2= 6.3D+00
   Bfn.  Coefficient  Atom+Function         Bfn.  Coefficient  Atom+Function  
  ----- ------------  ---------------      ----- ------------  ---------------
     6      3.713600   1 C  s                21     -3.711754   2 C  s         
    69      3.542894   7 H  s                81     -3.544111  11 H  s         
    14     -3.338591   1 C  py               29     -3.343205   2 C  py        
    13      3.169618   1 C  px               28      3.171875   2 C  px        
    66      2.892327   6 C  pz               48     -2.578471   4 C  pz        
 
 Vector   39  Occ=0.000000D+00  E= 1.956352D-01
              MO Center= -1.1D-01,  1.5D-01, -3.5D-01, r^2= 7.1D+00
   Bfn.  Coefficient  Atom+Function         Bfn.  Coefficient  Atom+Function  
  ----- ------------  ---------------      ----- ------------  ---------------
    33      2.800535   3 H  s                51      2.800643   5 H  s         
    30      2.430237   2 C  pz               15      2.272458   1 C  pz        
    48      1.548376   4 C  pz               14     -1.124432   1 C  py        
    65     -1.090064   6 C  py               64      0.910757   6 C  px        
    29     -0.903309   2 C  py               39     -0.867150   4 C  s         
 
 Vector   40  Occ=0.000000D+00  E= 2.387679D-01
              MO Center= -3.8D-02,  5.4D-02, -1.3D-01, r^2= 9.1D+00
   Bfn.  Coefficient  Atom+Function         Bfn.  Coefficient  Atom+Function  
  ----- ------------  ---------------      ----- ------------  ---------------
    29      2.969102   2 C  py               28     -2.734947   2 C  px        
    15      2.636544   1 C  pz               14      2.327442   1 C  py        
    13     -2.290352   1 C  px               33     -1.953474   3 H  s         
    51      1.953441   5 H  s                75     -1.655919   9 H  s         
    78      1.655693  10 H  s                72     -1.644197   8 H  s         
 
 Vector   41  Occ=0.000000D+00  E= 2.411116D-01
              MO Center=  1.4D-01, -2.0D-01,  4.6D-01, r^2= 9.2D+00
   Bfn.  Coefficient  Atom+Function         Bfn.  Coefficient  Atom+Function  
  ----- ------------  ---------------      ----- ------------  ---------------
    72      1.886059   8 H  s                84     -1.885705  12 H  s         
    75     -1.869019   9 H  s                78      1.869043  10 H  s         
    46      1.024376   4 C  px               64      1.026255   6 C  px        
    47      0.900209   4 C  py               65      0.897212   6 C  py        
    71     -0.850764   8 H  s                74      0.847078   9 H  s         
 
 Vector   42  Occ=0.000000D+00  E= 2.503339D-01
              MO Center=  2.4D-01, -3.5D-01,  8.1D-01, r^2= 5.9D+00
   Bfn.  Coefficient  Atom+Function         Bfn.  Coefficient  Atom+Function  
  ----- ------------  ---------------      ----- ------------  ---------------
     6      2.382103   1 C  s                21      2.381697   2 C  s         
    69      1.732103   7 H  s                81      1.732374  11 H  s         
    39     -1.148046   4 C  s                57     -1.145858   6 C  s         
     5     -1.103801   1 C  s                20     -1.103882   2 C  s         
    68     -0.998254   7 H  s                80     -0.998278  11 H  s         
 
 Vector   43  Occ=0.000000D+00  E= 2.549157D-01
              MO Center= -3.5D-01,  4.9D-01, -1.1D+00, r^2= 6.5D+00
   Bfn.  Coefficient  Atom+Function         Bfn.  Coefficient  Atom+Function  
  ----- ------------  ---------------      ----- ------------  ---------------
    15      8.323380   1 C  pz               30     -8.005553   2 C  pz        
    33      5.648968   3 H  s                51     -5.647834   5 H  s         
    39     -3.771922   4 C  s                57      3.772693   6 C  s         
    29      3.741586   2 C  py               14     -3.298316   1 C  py        
    28     -2.652240   2 C  px               13      2.230880   1 C  px        
 
 Vector   44  Occ=0.000000D+00  E= 2.552319D-01
              MO Center=  1.5D-01, -2.0D-01,  4.8D-01, r^2= 9.9D+00
   Bfn.  Coefficient  Atom+Function         Bfn.  Coefficient  Atom+Function  
  ----- ------------  ---------------      ----- ------------  ---------------
    75     -2.490977   9 H  s                84      2.502152  12 H  s         
    72      2.465555   8 H  s                78     -2.454253  10 H  s         
    64     -1.849076   6 C  px               46      1.809314   4 C  px        
    47      1.626670   4 C  py               65     -1.584557   6 C  py        
    83     -0.710240  12 H  s                71     -0.704070   8 H  s         
 
 Vector   45  Occ=0.000000D+00  E= 2.690526D-01
              MO Center= -7.7D-02,  1.1D-01, -2.6D-01, r^2= 8.3D+00
   Bfn.  Coefficient  Atom+Function         Bfn.  Coefficient  Atom+Function  
  ----- ------------  ---------------      ----- ------------  ---------------
    33      1.413957   3 H  s                51      1.415093   5 H  s         
    75     -1.111353   9 H  s                78     -1.110801  10 H  s         
    72     -1.100643   8 H  s                84     -1.100896  12 H  s         
    38     -0.844385   4 C  s                56     -0.843765   6 C  s         
    30      0.725302   2 C  pz               71      0.721999   8 H  s         
 
 Vector   46  Occ=0.000000D+00  E= 2.872189D-01
              MO Center=  2.0D-03, -2.4D-03,  4.5D-03, r^2= 6.2D+00
   Bfn.  Coefficient  Atom+Function         Bfn.  Coefficient  Atom+Function  
  ----- ------------  ---------------      ----- ------------  ---------------
     6      2.187590   1 C  s                21     -2.187111   2 C  s         
    38      1.201737   4 C  s                56     -1.202423   6 C  s         
    39     -1.137868   4 C  s                57      1.138479   6 C  s         
    33     -0.975789   3 H  s                51      0.976294   5 H  s         
    30      0.962556   2 C  pz               14      0.684935   1 C  py        
 
 Vector   47  Occ=0.000000D+00  E= 3.026553D-01
              MO Center=  8.7D-02, -1.3D-01,  2.9D-01, r^2= 6.9D+00
   Bfn.  Coefficient  Atom+Function         Bfn.  Coefficient  Atom+Function  
  ----- ------------  ---------------      ----- ------------  ---------------
     6      3.479754   1 C  s                21      3.480478   2 C  s         
     5     -1.669378   1 C  s                20     -1.669493   2 C  s         
    48      1.567416   4 C  pz               69     -1.463983   7 H  s         
    81     -1.464191  11 H  s                66      1.253380   6 C  pz        
    39      1.142734   4 C  s                57      1.142425   6 C  s         
 
 Vector   48  Occ=0.000000D+00  E= 3.282471D-01
              MO Center=  2.6D-01, -3.8D-01,  8.7D-01, r^2= 7.0D+00
   Bfn.  Coefficient  Atom+Function         Bfn.  Coefficient  Atom+Function  
  ----- ------------  ---------------      ----- ------------  ---------------
    69      4.353528   7 H  s                81     -4.353318  11 H  s         
    48     -2.754545   4 C  pz               66      2.588176   6 C  pz        
    14     -1.813335   1 C  py               30     -1.704385   2 C  pz        
     6     -1.668838   1 C  s                21      1.669064   2 C  s         
    13      1.656348   1 C  px               39     -1.532114   4 C  s         
 
 Vector   49  Occ=0.000000D+00  E= 4.136881D-01
              MO Center= -1.5D-01,  2.1D-01, -4.9D-01, r^2= 5.8D+00
   Bfn.  Coefficient  Atom+Function         Bfn.  Coefficient  Atom+Function  
  ----- ------------  ---------------      ----- ------------  ---------------
    15      8.712368   1 C  pz               30     -6.139564   2 C  pz        
    29      5.001592   2 C  py               28     -3.926552   2 C  px        
     6     -3.027579   1 C  s                21      3.027591   2 C  s         
    33      2.973712   3 H  s                51     -2.973210   5 H  s         
    39     -2.579350   4 C  s                57      2.578401   6 C  s         
 
 Vector   50  Occ=0.000000D+00  E= 4.726706D-01
              MO Center=  6.9D-02, -9.9D-02,  2.3D-01, r^2= 7.0D+00
   Bfn.  Coefficient  Atom+Function         Bfn.  Coefficient  Atom+Function  
  ----- ------------  ---------------      ----- ------------  ---------------
    39      7.248757   4 C  s                57      7.248220   6 C  s         
     6     -3.384046   1 C  s                21     -3.385494   2 C  s         
    15     -2.253766   1 C  pz               38     -1.905296   4 C  s         
    56     -1.904897   6 C  s                30     -1.732593   2 C  pz        
    48     -1.502590   4 C  pz               33     -1.453234   3 H  s         
 
 Vector   51  Occ=0.000000D+00  E= 4.836066D-01
              MO Center= -1.5D-01,  2.1D-01, -4.9D-01, r^2= 5.2D+00
   Bfn.  Coefficient  Atom+Function         Bfn.  Coefficient  Atom+Function  
  ----- ------------  ---------------      ----- ------------  ---------------
     6     11.094500   1 C  s                21    -11.093400   2 C  s         
    30     -5.940430   2 C  pz               14     -5.815759   1 C  py        
    13      5.234107   1 C  px               28      3.693008   2 C  px        
    29     -3.592712   2 C  py               33      2.999976   3 H  s         
    51     -2.999550   5 H  s                 5     -2.678491   1 C  s         
 
 Vector   52  Occ=0.000000D+00  E= 5.563838D-01
              MO Center=  1.6D-01, -2.3D-01,  5.4D-01, r^2= 7.7D+00
   Bfn.  Coefficient  Atom+Function         Bfn.  Coefficient  Atom+Function  
  ----- ------------  ---------------      ----- ------------  ---------------
    39     11.919425   4 C  s                57    -11.919919   6 C  s         
    15     -9.372664   1 C  pz               30      7.816744   2 C  pz        
     6     -6.323254   1 C  s                21      6.323627   2 C  s         
    29     -4.794961   2 C  py               28      3.601084   2 C  px        
    33     -3.473308   3 H  s                51      3.473279   5 H  s         
 
 Vector   53  Occ=0.000000D+00  E= 1.098935D+00
              MO Center= -3.9D-02,  5.7D-02, -1.3D-01, r^2= 3.9D+00
   Bfn.  Coefficient  Atom+Function         Bfn.  Coefficient  Atom+Function  
  ----- ------------  ---------------      ----- ------------  ---------------
    45      1.306037   4 C  pz               12      1.172828   1 C  pz        
    62     -1.006801   6 C  py               26     -0.921319   2 C  py        
    61      0.861819   6 C  px               48     -0.850108   4 C  pz        
     5      0.809295   1 C  s                20      0.809078   2 C  s         
    25      0.791116   2 C  px               15     -0.724143   1 C  pz        
 
 Vector   54  Occ=0.000000D+00  E= 1.102135D+00
              MO Center= -1.7D-01,  2.4D-01, -5.7D-01, r^2= 2.1D+00
   Bfn.  Coefficient  Atom+Function         Bfn.  Coefficient  Atom+Function  
  ----- ------------  ---------------      ----- ------------  ---------------
    10      0.798370   1 C  px               25      0.799392   2 C  px        
    11      0.709991   1 C  py               26      0.708895   2 C  py        
     7     -0.658626   1 C  px               22     -0.659100   2 C  px        
     8     -0.585482   1 C  py               23     -0.584972   2 C  py        
    13     -0.376931   1 C  px               28     -0.377789   2 C  px        
 
 Vector   55  Occ=0.000000D+00  E= 1.167346D+00
              MO Center= -1.3D-01,  1.9D-01, -4.4D-01, r^2= 2.9D+00
   Bfn.  Coefficient  Atom+Function         Bfn.  Coefficient  Atom+Function  
  ----- ------------  ---------------      ----- ------------  ---------------
    14     -1.913981   1 C  py               30     -1.837300   2 C  pz        
    13      1.740929   1 C  px               26      1.480216   2 C  py        
    33      1.440153   3 H  s                51     -1.439775   5 H  s         
    25     -1.390973   2 C  px               11      1.372865   1 C  py        
    28      1.335220   2 C  px               29     -1.328153   2 C  py        
 
 Vector   56  Occ=0.000000D+00  E= 1.177604D+00
              MO Center= -1.3D-01,  1.9D-01, -4.3D-01, r^2= 2.8D+00
   Bfn.  Coefficient  Atom+Function         Bfn.  Coefficient  Atom+Function  
  ----- ------------  ---------------      ----- ------------  ---------------
    10      1.012855   1 C  px               25     -1.011330   2 C  px        
    11      0.897461   1 C  py               26     -0.899522   2 C  py        
    13     -0.732211   1 C  px               28      0.729877   2 C  px        
    14     -0.646188   1 C  py               29      0.649371   2 C  py        
     7     -0.612645   1 C  px               22      0.611791   2 C  px        
 
 Vector   57  Occ=0.000000D+00  E= 1.191154D+00
              MO Center= -6.9D-03,  1.0D-02, -2.4D-02, r^2= 3.4D+00
   Bfn.  Coefficient  Atom+Function         Bfn.  Coefficient  Atom+Function  
  ----- ------------  ---------------      ----- ------------  ---------------
    30      1.485181   2 C  pz               33      1.327863   3 H  s         
    51      1.328469   5 H  s                63     -1.015042   6 C  pz        
    27     -0.985802   2 C  pz               15      0.980650   1 C  pz        
    14     -0.885410   1 C  py               44      0.784200   4 C  py        
    39     -0.746955   4 C  s                57     -0.746920   6 C  s         
 
 Vector   58  Occ=0.000000D+00  E= 1.245321D+00
              MO Center=  1.3D-01, -1.9D-01,  4.4D-01, r^2= 3.6D+00
   Bfn.  Coefficient  Atom+Function         Bfn.  Coefficient  Atom+Function  
  ----- ------------  ---------------      ----- ------------  ---------------
    43      1.205618   4 C  px               61      1.207870   6 C  px        
    44      1.071813   4 C  py               62      1.068710   6 C  py        
    46     -0.883383   4 C  px               64     -0.884539   6 C  px        
    47     -0.786451   4 C  py               65     -0.784793   6 C  py        
    72     -0.766538   8 H  s                75      0.765289   9 H  s         
 
 Vector   59  Occ=0.000000D+00  E= 1.271911D+00
              MO Center=  1.3D-01, -1.9D-01,  4.4D-01, r^2= 4.8D+00
   Bfn.  Coefficient  Atom+Function         Bfn.  Coefficient  Atom+Function  
  ----- ------------  ---------------      ----- ------------  ---------------
    39     -2.750651   4 C  s                57      2.750639   6 C  s         
     6      2.557972   1 C  s                21     -2.557899   2 C  s         
    30     -2.510353   2 C  pz               45      2.088609   4 C  pz        
    14     -1.834325   1 C  py               69      1.736493   7 H  s         
    81     -1.736373  11 H  s                13      1.550439   1 C  px        
 
 Vector   60  Occ=0.000000D+00  E= 1.323506D+00
              MO Center= -4.9D-03,  7.1D-03, -1.7D-02, r^2= 4.0D+00
   Bfn.  Coefficient  Atom+Function         Bfn.  Coefficient  Atom+Function  
  ----- ------------  ---------------      ----- ------------  ---------------
    63      1.059308   6 C  pz               45      0.976546   4 C  pz        
    66     -0.869828   6 C  pz               12     -0.828132   1 C  pz        
    27     -0.743501   2 C  pz               30      0.706630   2 C  pz        
    69      0.676444   7 H  s                81      0.676607  11 H  s         
    42     -0.650687   4 C  pz               15      0.641136   1 C  pz        
 
 Vector   61  Occ=0.000000D+00  E= 1.336582D+00
              MO Center=  9.0D-02, -1.3D-01,  3.0D-01, r^2= 4.2D+00
   Bfn.  Coefficient  Atom+Function         Bfn.  Coefficient  Atom+Function  
  ----- ------------  ---------------      ----- ------------  ---------------
    46     -1.329888   4 C  px               64      1.329579   6 C  px        
    43      1.288399   4 C  px               61     -1.287800   6 C  px        
    47     -1.181120   4 C  py               65      1.181525   6 C  py        
    72     -1.156174   8 H  s                75      1.155332   9 H  s         
    78      1.155323  10 H  s                84     -1.156111  12 H  s         
 
 Vector   62  Occ=0.000000D+00  E= 1.384477D+00
              MO Center=  6.5D-02, -9.4D-02,  2.2D-01, r^2= 4.5D+00
   Bfn.  Coefficient  Atom+Function         Bfn.  Coefficient  Atom+Function  
  ----- ------------  ---------------      ----- ------------  ---------------
    15      2.785025   1 C  pz               29      2.075829   2 C  py        
    28     -1.762072   2 C  px               66     -1.618225   6 C  pz        
    69     -1.612716   7 H  s                81      1.612702  11 H  s         
    63      1.520089   6 C  pz               39     -1.446219   4 C  s         
    57      1.446280   6 C  s                44      1.355918   4 C  py        
 
 Vector   63  Occ=0.000000D+00  E= 1.485457D+00
              MO Center= -6.2D-02,  9.0D-02, -2.1D-01, r^2= 3.9D+00
   Bfn.  Coefficient  Atom+Function         Bfn.  Coefficient  Atom+Function  
  ----- ------------  ---------------      ----- ------------  ---------------
    30      1.215133   2 C  pz               14     -1.057946   1 C  py        
    66     -1.012001   6 C  pz               27     -1.000075   2 C  pz        
    47      1.000346   4 C  py               11      0.994618   1 C  py        
    13      0.930663   1 C  px               33      0.920813   3 H  s         
    51      0.920934   5 H  s                10     -0.897595   1 C  px        
 
 Vector   64  Occ=0.000000D+00  E= 1.554986D+00
              MO Center= -2.4D-01,  3.4D-01, -7.9D-01, r^2= 2.8D+00
   Bfn.  Coefficient  Atom+Function         Bfn.  Coefficient  Atom+Function  
  ----- ------------  ---------------      ----- ------------  ---------------
    12      2.115263   1 C  pz               27     -2.121725   2 C  pz        
    30      1.935802   2 C  pz               33     -1.778683   3 H  s         
    51      1.778626   5 H  s                15     -1.482455   1 C  pz        
    32      1.351100   3 H  s                50     -1.351060   5 H  s         
    14      1.054213   1 C  py               11     -0.918181   1 C  py        
 
 Vector   65  Occ=0.000000D+00  E= 1.852918D+00
              MO Center=  2.1D-01, -3.1D-01,  7.1D-01, r^2= 4.5D+00
   Bfn.  Coefficient  Atom+Function         Bfn.  Coefficient  Atom+Function  
  ----- ------------  ---------------      ----- ------------  ---------------
    38      1.688255   4 C  s                56      1.688244   6 C  s         
    37     -1.352704   4 C  s                55     -1.352699   6 C  s         
    68     -1.163523   7 H  s                80     -1.163534  11 H  s         
     5     -0.873464   1 C  s                20     -0.873400   2 C  s         
    71     -0.768889   8 H  s                74     -0.769008   9 H  s         
 
 Vector   66  Occ=0.000000D+00  E= 1.939846D+00
              MO Center=  1.3D-01, -1.9D-01,  4.4D-01, r^2= 6.1D+00
   Bfn.  Coefficient  Atom+Function         Bfn.  Coefficient  Atom+Function  
  ----- ------------  ---------------      ----- ------------  ---------------
    38      2.055495   4 C  s                56     -2.055512   6 C  s         
    37     -1.595527   4 C  s                55      1.595539   6 C  s         
     5     -1.134971   1 C  s                20      1.135183   2 C  s         
    71     -1.084384   8 H  s                74     -1.083805   9 H  s         
    77      1.083835  10 H  s                83      1.084402  12 H  s         
 
 Vector   67  Occ=0.000000D+00  E= 2.032856D+00
              MO Center= -1.2D-01,  1.7D-01, -4.0D-01, r^2= 4.5D+00
   Bfn.  Coefficient  Atom+Function         Bfn.  Coefficient  Atom+Function  
  ----- ------------  ---------------      ----- ------------  ---------------
     5      1.179291   1 C  s                20      1.179349   2 C  s         
    32     -1.084121   3 H  s                50     -1.084151   5 H  s         
     4     -1.043118   1 C  s                19     -1.043143   2 C  s         
    68     -0.785269   7 H  s                80     -0.785349  11 H  s         
    31      0.736808   3 H  s                49      0.736825   5 H  s         
 
 Vector   68  Occ=0.000000D+00  E= 2.071041D+00
              MO Center=  1.4D-01, -2.0D-01,  4.6D-01, r^2= 7.4D+00
   Bfn.  Coefficient  Atom+Function         Bfn.  Coefficient  Atom+Function  
  ----- ------------  ---------------      ----- ------------  ---------------
    71      1.173062   8 H  s                74     -1.171880   9 H  s         
    77      1.172418  10 H  s                83     -1.172703  12 H  s         
    70     -0.796154   8 H  s                73      0.795282   9 H  s         
    76     -0.795628  10 H  s                82      0.795934  12 H  s         
    72     -0.765928   8 H  s                75      0.764400   9 H  s         
 
 Vector   69  Occ=0.000000D+00  E= 2.085804D+00
              MO Center=  1.4D-02, -2.0D-02,  4.7D-02, r^2= 6.0D+00
   Bfn.  Coefficient  Atom+Function         Bfn.  Coefficient  Atom+Function  
  ----- ------------  ---------------      ----- ------------  ---------------
    32      0.962255   3 H  s                50      0.961607   5 H  s         
    74      0.778334   9 H  s                68     -0.773782   7 H  s         
    71      0.775785   8 H  s                77      0.777532  10 H  s         
    80     -0.773468  11 H  s                83      0.776330  12 H  s         
    31     -0.654532   3 H  s                49     -0.654124   5 H  s         
 
 Vector   70  Occ=0.000000D+00  E= 2.095310D+00
              MO Center=  1.4D-01, -2.0D-01,  4.7D-01, r^2= 7.1D+00
   Bfn.  Coefficient  Atom+Function         Bfn.  Coefficient  Atom+Function  
  ----- ------------  ---------------      ----- ------------  ---------------
    71      1.112703   8 H  s                74     -1.109851   9 H  s         
    77     -1.111254  10 H  s                83      1.111133  12 H  s         
    70     -0.796638   8 H  s                73      0.794995   9 H  s         
    76      0.795838  10 H  s                82     -0.795680  12 H  s         
    72     -0.491208   8 H  s                75      0.488018   9 H  s         
 
 Vector   71  Occ=0.000000D+00  E= 2.098403D+00
              MO Center= -1.5D-01,  2.1D-01, -4.9D-01, r^2= 4.0D+00
   Bfn.  Coefficient  Atom+Function         Bfn.  Coefficient  Atom+Function  
  ----- ------------  ---------------      ----- ------------  ---------------
    30      3.418523   2 C  pz               15     -2.702397   1 C  pz        
     6     -2.534202   1 C  s                21      2.534034   2 C  s         
     5      2.190526   1 C  s                20     -2.190469   2 C  s         
    14      1.819852   1 C  py                4     -1.476072   1 C  s         
    19      1.476064   2 C  s                39      1.454518   4 C  s         
 
 Vector   72  Occ=0.000000D+00  E= 2.207636D+00
              MO Center= -1.6D-01,  2.4D-01, -5.5D-01, r^2= 2.7D+00
   Bfn.  Coefficient  Atom+Function         Bfn.  Coefficient  Atom+Function  
  ----- ------------  ---------------      ----- ------------  ---------------
     5      3.228572   1 C  s                20      3.228904   2 C  s         
     4     -2.550077   1 C  s                19     -2.550225   2 C  s         
     6     -2.520067   1 C  s                21     -2.520263   2 C  s         
    38      0.800017   4 C  s                56      0.802033   6 C  s         
    37     -0.721142   4 C  s                48     -0.723279   4 C  pz        
 
 Vector   73  Occ=0.000000D+00  E= 2.212612D+00
              MO Center=  2.3D-01, -3.3D-01,  7.7D-01, r^2= 4.1D+00
   Bfn.  Coefficient  Atom+Function         Bfn.  Coefficient  Atom+Function  
  ----- ------------  ---------------      ----- ------------  ---------------
    15      2.328071   1 C  pz               30     -2.101568   2 C  pz        
    69     -1.521999   7 H  s                81      1.521211  11 H  s         
    68      1.457442   7 H  s                80     -1.457499  11 H  s         
    29      1.112830   2 C  py               38     -0.899316   4 C  s         
    56      0.897602   6 C  s                67     -0.900800   7 H  s         
 
 Vector   74  Occ=0.000000D+00  E= 2.429743D+00
              MO Center= -2.3D-01,  3.3D-01, -7.8D-01, r^2= 2.4D+00
   Bfn.  Coefficient  Atom+Function         Bfn.  Coefficient  Atom+Function  
  ----- ------------  ---------------      ----- ------------  ---------------
     6      6.625390   1 C  s                21     -6.625267   2 C  s         
     5     -4.173476   1 C  s                20      4.173373   2 C  s         
     4      2.675788   1 C  s                19     -2.675707   2 C  s         
    29     -1.878662   2 C  py               28      1.741368   2 C  px        
    15     -1.600443   1 C  pz               14     -1.557340   1 C  py        
 
 Vector   75  Occ=0.000000D+00  E= 2.483283D+00
              MO Center=  1.3D-01, -1.9D-01,  4.5D-01, r^2= 4.6D+00
   Bfn.  Coefficient  Atom+Function         Bfn.  Coefficient  Atom+Function  
  ----- ------------  ---------------      ----- ------------  ---------------
    39      4.645800   4 C  s                57      4.645666   6 C  s         
    38     -3.507679   4 C  s                56     -3.507577   6 C  s         
    37      2.494132   4 C  s                55      2.494059   6 C  s         
     6     -1.962116   1 C  s                21     -1.961585   2 C  s         
     5      1.177741   1 C  s                20      1.177410   2 C  s         
 
 Vector   76  Occ=0.000000D+00  E= 2.635255D+00
              MO Center=  1.6D-01, -2.3D-01,  5.4D-01, r^2= 4.8D+00
   Bfn.  Coefficient  Atom+Function         Bfn.  Coefficient  Atom+Function  
  ----- ------------  ---------------      ----- ------------  ---------------
    39      7.478034   4 C  s                57     -7.478232   6 C  s         
    15     -5.067071   1 C  pz               38     -3.898458   4 C  s         
    56      3.898555   6 C  s                30      3.475332   2 C  pz        
    29     -2.955466   2 C  py               37      2.505091   4 C  s         
    55     -2.505151   6 C  s                28      2.332784   2 C  px        
 
 Vector   77  Occ=0.000000D+00  E= 1.118623D+01
              MO Center= -1.7D-01,  2.5D-01, -5.8D-01, r^2= 8.9D-01
   Bfn.  Coefficient  Atom+Function         Bfn.  Coefficient  Atom+Function  
  ----- ------------  ---------------      ----- ------------  ---------------
     4     -2.302294   1 C  s                19     -2.302332   2 C  s         
     3      2.278066   1 C  s                18      2.278111   2 C  s         
     5      1.893904   1 C  s                20      1.893923   2 C  s         
     2     -1.201380   1 C  s                17     -1.201403   2 C  s         
     6     -1.138547   1 C  s                21     -1.138506   2 C  s         
 
 Vector   78  Occ=0.000000D+00  E= 1.145115D+01
              MO Center=  1.3D-01, -1.9D-01,  4.5D-01, r^2= 2.9D+00
   Bfn.  Coefficient  Atom+Function         Bfn.  Coefficient  Atom+Function  
  ----- ------------  ---------------      ----- ------------  ---------------
    37     -2.367568   4 C  s                55     -2.367620   6 C  s         
    36      2.298240   4 C  s                54      2.298289   6 C  s         
    38      2.074273   4 C  s                56      2.074321   6 C  s         
    39     -1.625781   4 C  s                57     -1.625822   6 C  s         
    35     -1.203923   4 C  s                53     -1.203949   6 C  s         
 
 Vector   79  Occ=0.000000D+00  E= 1.150732D+01
              MO Center=  1.4D-01, -2.0D-01,  4.7D-01, r^2= 2.9D+00
   Bfn.  Coefficient  Atom+Function         Bfn.  Coefficient  Atom+Function  
  ----- ------------  ---------------      ----- ------------  ---------------
    37     -2.472948   4 C  s                55      2.472898   6 C  s         
    36      2.335670   4 C  s                54     -2.335620   6 C  s         
    38      2.289114   4 C  s                56     -2.289072   6 C  s         
    39     -2.190387   4 C  s                57      2.190370   6 C  s         
    35     -1.217140   4 C  s                53      1.217114   6 C  s         
 
 Vector   80  Occ=0.000000D+00  E= 1.159756D+01
              MO Center= -1.8D-01,  2.5D-01, -5.9D-01, r^2= 8.1D-01
   Bfn.  Coefficient  Atom+Function         Bfn.  Coefficient  Atom+Function  
  ----- ------------  ---------------      ----- ------------  ---------------
     6      2.921755   1 C  s                21     -2.921700   2 C  s         
     4      2.528234   1 C  s                19     -2.528183   2 C  s         
     5     -2.504298   1 C  s                20      2.504246   2 C  s         
     3     -2.350222   1 C  s                18      2.350178   2 C  s         
     2      1.218773   1 C  s                17     -1.218751   2 C  s         
 
 Vector   81  Occ=0.000000D+00  E= 6.213859D+01
              MO Center= -1.7D-01,  2.5D-01, -5.7D-01, r^2= 6.0D-01
   Bfn.  Coefficient  Atom+Function         Bfn.  Coefficient  Atom+Function  
  ----- ------------  ---------------      ----- ------------  ---------------
     2      2.051104   1 C  s                17      2.051146   2 C  s         
     3     -1.548840   1 C  s                18     -1.548872   2 C  s         
     1     -1.218284   1 C  s                16     -1.218309   2 C  s         
     4      1.013701   1 C  s                19      1.013719   2 C  s         
     5     -0.790336   1 C  s                20     -0.790345   2 C  s         
 
 Vector   82  Occ=0.000000D+00  E= 6.239629D+01
              MO Center=  1.3D-01, -1.9D-01,  4.4D-01, r^2= 2.6D+00
   Bfn.  Coefficient  Atom+Function         Bfn.  Coefficient  Atom+Function  
  ----- ------------  ---------------      ----- ------------  ---------------
    35      2.063025   4 C  s                53      2.063054   6 C  s         
    36     -1.571972   4 C  s                54     -1.571994   6 C  s         
    34     -1.219678   4 C  s                52     -1.219695   6 C  s         
    37      1.052128   4 C  s                55      1.052144   6 C  s         
    38     -0.874110   4 C  s                56     -0.874124   6 C  s         
 
 Vector   83  Occ=0.000000D+00  E= 6.245647D+01
              MO Center=  1.4D-01, -2.0D-01,  4.6D-01, r^2= 2.6D+00
   Bfn.  Coefficient  Atom+Function         Bfn.  Coefficient  Atom+Function  
  ----- ------------  ---------------      ----- ------------  ---------------
    35      2.080502   4 C  s                53     -2.080471   6 C  s         
    36     -1.593952   4 C  s                54      1.593929   6 C  s         
    34     -1.227657   4 C  s                52      1.227639   6 C  s         
    37      1.096077   4 C  s                55     -1.096061   6 C  s         
    38     -0.960122   4 C  s                56      0.960110   6 C  s         
 
 Vector   84  Occ=0.000000D+00  E= 6.254620D+01
              MO Center= -1.7D-01,  2.5D-01, -5.8D-01, r^2= 5.6D-01
   Bfn.  Coefficient  Atom+Function         Bfn.  Coefficient  Atom+Function  
  ----- ------------  ---------------      ----- ------------  ---------------
     2      2.090834   1 C  s                17     -2.090792   2 C  s         
     3     -1.613495   1 C  s                18      1.613463   2 C  s         
     6      1.248178   1 C  s                21     -1.248154   2 C  s         
     1     -1.228894   1 C  s                16      1.228870   2 C  s         
     4      1.131965   1 C  s                19     -1.131941   2 C  s         
 
 
                     DFT Final Beta Molecular Orbital Analysis
                     -----------------------------------------
 
 Vector    1  Occ=1.000000D+00  E=-1.017733D+01
              MO Center= -1.8D-01,  2.6D-01, -5.9D-01, r^2= 4.8D-01
   Bfn.  Coefficient  Atom+Function         Bfn.  Coefficient  Atom+Function  
  ----- ------------  ---------------      ----- ------------  ---------------
     2      0.299880   1 C  s                17      0.299954   2 C  s         
     3      0.254425   1 C  s                18      0.254488   2 C  s         
     1      0.218357   1 C  s                16      0.218411   2 C  s         
     4      0.039870   1 C  s                19      0.039880   2 C  s         
 
 Vector    2  Occ=1.000000D+00  E=-1.017671D+01
              MO Center= -1.8D-01,  2.6D-01, -5.9D-01, r^2= 4.8D-01
   Bfn.  Coefficient  Atom+Function         Bfn.  Coefficient  Atom+Function  
  ----- ------------  ---------------      ----- ------------  ---------------
     2      0.300200   1 C  s                17     -0.300126   2 C  s         
     3      0.254013   1 C  s                18     -0.253950   2 C  s         
     1      0.218423   1 C  s                16     -0.218370   2 C  s         
     4      0.041258   1 C  s                19     -0.041248   2 C  s         
 
 Vector    3  Occ=1.000000D+00  E=-1.010652D+01
              MO Center=  5.6D-01, -6.4D-01,  1.5D-01, r^2= 2.1D+00
   Bfn.  Coefficient  Atom+Function         Bfn.  Coefficient  Atom+Function  
  ----- ------------  ---------------      ----- ------------  ---------------
    53      0.359118   6 C  s                54      0.304187   6 C  s         
    52      0.261407   6 C  s                35     -0.225929   4 C  s         
    36     -0.191329   4 C  s                34     -0.164448   4 C  s         
    55      0.048957   6 C  s                37     -0.030945   4 C  s         
 
 Vector    4  Occ=1.000000D+00  E=-1.010652D+01
              MO Center= -2.8D-01,  2.4D-01,  7.8D-01, r^2= 2.1D+00
   Bfn.  Coefficient  Atom+Function         Bfn.  Coefficient  Atom+Function  
  ----- ------------  ---------------      ----- ------------  ---------------
    35      0.359096   4 C  s                36      0.304256   4 C  s         
    34      0.261410   4 C  s                53      0.225894   6 C  s         
    54      0.191438   6 C  s                52      0.164452   6 C  s         
    37      0.048653   4 C  s                55      0.030461   6 C  s         
 
 Vector    5  Occ=1.000000D+00  E=-9.803697D-01
              MO Center= -1.1D-01,  1.6D-01, -3.8D-01, r^2= 1.6D+00
   Bfn.  Coefficient  Atom+Function         Bfn.  Coefficient  Atom+Function  
  ----- ------------  ---------------      ----- ------------  ---------------
     5      0.351862   1 C  s                20      0.351861   2 C  s         
    38      0.164186   4 C  s                56      0.164186   6 C  s         
     3     -0.103610   1 C  s                18     -0.103611   2 C  s         
    39      0.084649   4 C  s                57      0.084646   6 C  s         
     2     -0.081630   1 C  s                17     -0.081631   2 C  s         
 
 Vector    6  Occ=1.000000D+00  E=-8.833161D-01
              MO Center=  4.6D-02, -6.7D-02,  1.6D-01, r^2= 3.3D+00
   Bfn.  Coefficient  Atom+Function         Bfn.  Coefficient  Atom+Function  
  ----- ------------  ---------------      ----- ------------  ---------------
    38      0.337833   4 C  s                56     -0.337848   6 C  s         
     5      0.190980   1 C  s                20     -0.190971   2 C  s         
    39      0.110152   4 C  s                57     -0.110154   6 C  s         
    36     -0.088575   4 C  s                54      0.088580   6 C  s         
    35     -0.072091   4 C  s                53      0.072094   6 C  s         
 
 Vector    7  Occ=1.000000D+00  E=-8.296952D-01
              MO Center=  3.0D-02, -4.3D-02,  1.0D-01, r^2= 3.4D+00
   Bfn.  Coefficient  Atom+Function         Bfn.  Coefficient  Atom+Function  
  ----- ------------  ---------------      ----- ------------  ---------------
    38      0.313277   4 C  s                56      0.313253   6 C  s         
     5     -0.161801   1 C  s                20     -0.161808   2 C  s         
     9      0.137918   1 C  pz               23     -0.116287   2 C  py        
    22      0.101591   2 C  px               39      0.090543   4 C  s         
    57      0.090537   6 C  s                12      0.086943   1 C  pz        
 
 Vector    8  Occ=1.000000D+00  E=-7.044649D-01
              MO Center= -8.0D-02,  1.2D-01, -2.7D-01, r^2= 3.7D+00
   Bfn.  Coefficient  Atom+Function         Bfn.  Coefficient  Atom+Function  
  ----- ------------  ---------------      ----- ------------  ---------------
     5      0.284675   1 C  s                20     -0.284677   2 C  s         
    38     -0.170016   4 C  s                56      0.170030   6 C  s         
    42     -0.119997   4 C  pz               32      0.114236   3 H  s         
    50     -0.114238   5 H  s                24      0.100262   2 C  pz        
    31      0.099441   3 H  s                49     -0.099442   5 H  s         
 
 Vector    9  Occ=1.000000D+00  E=-6.739825D-01
              MO Center= -1.6D-01,  2.3D-01, -5.3D-01, r^2= 2.5D+00
   Bfn.  Coefficient  Atom+Function         Bfn.  Coefficient  Atom+Function  
  ----- ------------  ---------------      ----- ------------  ---------------
    24      0.238670   2 C  pz               27      0.187437   2 C  pz        
     8     -0.181527   1 C  py                7      0.154856   1 C  px        
    11     -0.133273   1 C  py               10      0.111746   1 C  px        
    32     -0.108246   3 H  s                50     -0.108241   5 H  s         
    31     -0.104000   3 H  s                49     -0.103996   5 H  s         
 
 Vector   10  Occ=1.000000D+00  E=-6.081840D-01
              MO Center=  5.2D-02, -7.4D-02,  1.7D-01, r^2= 3.0D+00
   Bfn.  Coefficient  Atom+Function         Bfn.  Coefficient  Atom+Function  
[...]
    32     -1.143830   3 H  s                50     -1.143855   5 H  s         
     5      1.051519   1 C  s                20      1.051562   2 C  s         
     4     -0.949738   1 C  s                19     -0.949750   2 C  s         
    31      0.782203   3 H  s                49      0.782218   5 H  s         
    68     -0.726823   7 H  s                80     -0.726904  11 H  s         
 
 Vector   68  Occ=0.000000D+00  E= 2.082877D+00
              MO Center=  1.4D-01, -2.0D-01,  4.6D-01, r^2= 7.4D+00
   Bfn.  Coefficient  Atom+Function         Bfn.  Coefficient  Atom+Function  
  ----- ------------  ---------------      ----- ------------  ---------------
    71      1.171659   8 H  s                74     -1.169720   9 H  s         
    77      1.170707  10 H  s                83     -1.170893  12 H  s         
    70     -0.796571   8 H  s                73      0.795248   9 H  s         
    76     -0.795870  10 H  s                82      0.796107  12 H  s         
    72     -0.764593   8 H  s                75      0.762431   9 H  s         
 
 Vector   69  Occ=0.000000D+00  E= 2.089724D+00
              MO Center=  3.3D-02, -4.6D-02,  1.1D-01, r^2= 6.0D+00
   Bfn.  Coefficient  Atom+Function         Bfn.  Coefficient  Atom+Function  
  ----- ------------  ---------------      ----- ------------  ---------------
    32      0.922519   3 H  s                50      0.921919   5 H  s         
    74      0.793346   9 H  s                68     -0.788046   7 H  s         
    71      0.790517   8 H  s                77      0.791955  10 H  s         
    80     -0.787776  11 H  s                83      0.791685  12 H  s         
    31     -0.631190   3 H  s                49     -0.630811   5 H  s         
 
 Vector   70  Occ=0.000000D+00  E= 2.103277D+00
              MO Center= -1.5D-01,  2.2D-01, -5.1D-01, r^2= 4.0D+00
   Bfn.  Coefficient  Atom+Function         Bfn.  Coefficient  Atom+Function  
  ----- ------------  ---------------      ----- ------------  ---------------
    30      3.378975   2 C  pz               15     -2.724878   1 C  pz        
     6     -2.329718   1 C  s                21      2.329531   2 C  s         
     5      2.080754   1 C  s                20     -2.080634   2 C  s         
    14      1.773687   1 C  py                4     -1.408877   1 C  s         
    19      1.408816   2 C  s                39      1.398780   4 C  s         
 
 Vector   71  Occ=0.000000D+00  E= 2.107202D+00
              MO Center=  1.4D-01, -2.0D-01,  4.7D-01, r^2= 7.1D+00
   Bfn.  Coefficient  Atom+Function         Bfn.  Coefficient  Atom+Function  
  ----- ------------  ---------------      ----- ------------  ---------------
    71      1.109398   8 H  s                74     -1.109305   9 H  s         
    77     -1.108095  10 H  s                83      1.110363  12 H  s         
    70     -0.795929   8 H  s                73      0.795969   9 H  s         
    76      0.795207  10 H  s                82     -0.796524  12 H  s         
    72     -0.488962   8 H  s                75      0.489889   9 H  s         
 
 Vector   72  Occ=0.000000D+00  E= 2.214124D+00
              MO Center=  2.3D-01, -3.3D-01,  7.7D-01, r^2= 4.1D+00
   Bfn.  Coefficient  Atom+Function         Bfn.  Coefficient  Atom+Function  
  ----- ------------  ---------------      ----- ------------  ---------------
    15      2.325369   1 C  pz               30     -2.097829   2 C  pz        
    69     -1.521768   7 H  s                81      1.521978  11 H  s         
    68      1.459662   7 H  s                80     -1.459507  11 H  s         
    29      1.113120   2 C  py               67     -0.904314   7 H  s         
    79      0.904144  11 H  s                33      0.882911   3 H  s         
 
 Vector   73  Occ=0.000000D+00  E= 2.224838D+00
              MO Center= -1.6D-01,  2.3D-01, -5.2D-01, r^2= 2.7D+00
   Bfn.  Coefficient  Atom+Function         Bfn.  Coefficient  Atom+Function  
  ----- ------------  ---------------      ----- ------------  ---------------
     5      3.258118   1 C  s                20      3.258119   2 C  s         
     4     -2.586728   1 C  s                19     -2.586819   2 C  s         
     6     -2.482402   1 C  s                21     -2.482248   2 C  s         
    38      0.858313   4 C  s                56      0.857587   6 C  s         
    37     -0.766105   4 C  s                55     -0.765498   6 C  s         
 
 Vector   74  Occ=0.000000D+00  E= 2.445085D+00
              MO Center= -2.3D-01,  3.3D-01, -7.7D-01, r^2= 2.4D+00
   Bfn.  Coefficient  Atom+Function         Bfn.  Coefficient  Atom+Function  
  ----- ------------  ---------------      ----- ------------  ---------------
     6      6.632455   1 C  s                21     -6.632371   2 C  s         
     5     -4.227214   1 C  s                20      4.227133   2 C  s         
     4      2.713639   1 C  s                19     -2.713572   2 C  s         
    29     -1.897508   2 C  py               28      1.759478   2 C  px        
    15     -1.612485   1 C  pz               14     -1.577984   1 C  py        
 
 Vector   75  Occ=0.000000D+00  E= 2.488432D+00
              MO Center=  1.3D-01, -1.9D-01,  4.4D-01, r^2= 4.6D+00
   Bfn.  Coefficient  Atom+Function         Bfn.  Coefficient  Atom+Function  
  ----- ------------  ---------------      ----- ------------  ---------------
    39      4.640181   4 C  s                57      4.640060   6 C  s         
    38     -3.486004   4 C  s                56     -3.485913   6 C  s         
    37      2.474710   4 C  s                55      2.474644   6 C  s         
     6     -2.002609   1 C  s                21     -2.001943   2 C  s         
     5      1.235579   1 C  s                20      1.235159   2 C  s         
 
 Vector   76  Occ=0.000000D+00  E= 2.640177D+00
              MO Center=  1.6D-01, -2.3D-01,  5.4D-01, r^2= 4.8D+00
   Bfn.  Coefficient  Atom+Function         Bfn.  Coefficient  Atom+Function  
  ----- ------------  ---------------      ----- ------------  ---------------
    39      7.470563   4 C  s                57     -7.470755   6 C  s         
    15     -5.051229   1 C  pz               38     -3.890633   4 C  s         
    56      3.890726   6 C  s                30      3.483651   2 C  pz        
    29     -2.936943   2 C  py               37      2.498218   4 C  s         
    55     -2.498275   6 C  s                28      2.315624   2 C  px        
 
 Vector   77  Occ=0.000000D+00  E= 1.119924D+01
              MO Center= -1.7D-01,  2.5D-01, -5.7D-01, r^2= 8.9D-01
   Bfn.  Coefficient  Atom+Function         Bfn.  Coefficient  Atom+Function  
  ----- ------------  ---------------      ----- ------------  ---------------
     4     -2.301298   1 C  s                19     -2.301337   2 C  s         
     3      2.276407   1 C  s                18      2.276452   2 C  s         
     5      1.892023   1 C  s                20      1.892043   2 C  s         
     2     -1.200119   1 C  s                17     -1.200143   2 C  s         
     6     -1.135163   1 C  s                21     -1.135123   2 C  s         
 
 Vector   78  Occ=0.000000D+00  E= 1.145238D+01
              MO Center=  1.3D-01, -1.9D-01,  4.5D-01, r^2= 2.9D+00
   Bfn.  Coefficient  Atom+Function         Bfn.  Coefficient  Atom+Function  
  ----- ------------  ---------------      ----- ------------  ---------------
    37     -2.365852   4 C  s                55     -2.365904   6 C  s         
    36      2.296316   4 C  s                54      2.296365   6 C  s         
    38      2.073393   4 C  s                56      2.073442   6 C  s         
    39     -1.626515   4 C  s                57     -1.626557   6 C  s         
    35     -1.202884   4 C  s                53     -1.202910   6 C  s         
 
 Vector   79  Occ=0.000000D+00  E= 1.150838D+01
              MO Center=  1.4D-01, -2.0D-01,  4.7D-01, r^2= 2.9D+00
   Bfn.  Coefficient  Atom+Function         Bfn.  Coefficient  Atom+Function  
  ----- ------------  ---------------      ----- ------------  ---------------
    37     -2.473641   4 C  s                55      2.473590   6 C  s         
    36      2.336090   4 C  s                54     -2.336040   6 C  s         
    38      2.290133   4 C  s                56     -2.290090   6 C  s         
    39     -2.193109   4 C  s                57      2.193092   6 C  s         
    35     -1.217334   4 C  s                53      1.217307   6 C  s         
 
 Vector   80  Occ=0.000000D+00  E= 1.161116D+01
              MO Center= -1.8D-01,  2.5D-01, -5.9D-01, r^2= 8.1D-01
   Bfn.  Coefficient  Atom+Function         Bfn.  Coefficient  Atom+Function  
  ----- ------------  ---------------      ----- ------------  ---------------
     6      2.919464   1 C  s                21     -2.919408   2 C  s         
     4      2.529472   1 C  s                19     -2.529420   2 C  s         
     5     -2.504600   1 C  s                20      2.504546   2 C  s         
     3     -2.350868   1 C  s                18      2.350823   2 C  s         
     2      1.218724   1 C  s                17     -1.218701   2 C  s         
 
 Vector   81  Occ=0.000000D+00  E= 6.214515D+01
              MO Center= -1.7D-01,  2.5D-01, -5.7D-01, r^2= 6.1D-01
   Bfn.  Coefficient  Atom+Function         Bfn.  Coefficient  Atom+Function  
  ----- ------------  ---------------      ----- ------------  ---------------
     2      2.050128   1 C  s                17      2.050170   2 C  s         
     3     -1.548146   1 C  s                18     -1.548177   2 C  s         
     1     -1.217638   1 C  s                16     -1.217663   2 C  s         
     4      1.013156   1 C  s                19      1.013175   2 C  s         
     5     -0.789700   1 C  s                20     -0.789710   2 C  s         
 
 Vector   82  Occ=0.000000D+00  E= 6.239692D+01
              MO Center=  1.3D-01, -1.9D-01,  4.4D-01, r^2= 2.6D+00
   Bfn.  Coefficient  Atom+Function         Bfn.  Coefficient  Atom+Function  
  ----- ------------  ---------------      ----- ------------  ---------------
    35      2.061978   4 C  s                53      2.062007   6 C  s         
    36     -1.571184   4 C  s                54     -1.571206   6 C  s         
    34     -1.219048   4 C  s                52     -1.219065   6 C  s         
    37      1.051646   4 C  s                55      1.051662   6 C  s         
    38     -0.873854   4 C  s                56     -0.873867   6 C  s         
 
 Vector   83  Occ=0.000000D+00  E= 6.245701D+01
              MO Center=  1.4D-01, -2.0D-01,  4.6D-01, r^2= 2.6D+00
   Bfn.  Coefficient  Atom+Function         Bfn.  Coefficient  Atom+Function  
  ----- ------------  ---------------      ----- ------------  ---------------
    35      2.081580   4 C  s                53     -2.081549   6 C  s         
    36     -1.594775   4 C  s                54      1.594752   6 C  s         
    34     -1.228286   4 C  s                52      1.228268   6 C  s         
    37      1.096699   4 C  s                55     -1.096684   6 C  s         
    38     -0.960815   4 C  s                56      0.960804   6 C  s         
 
 Vector   84  Occ=0.000000D+00  E= 6.255291D+01
              MO Center= -1.7D-01,  2.5D-01, -5.8D-01, r^2= 5.6D-01
   Bfn.  Coefficient  Atom+Function         Bfn.  Coefficient  Atom+Function  
  ----- ------------  ---------------      ----- ------------  ---------------
     2      2.092002   1 C  s                17     -2.091961   2 C  s         
     3     -1.614460   1 C  s                18      1.614428   2 C  s         
     6      1.248091   1 C  s                21     -1.248066   2 C  s         
     1     -1.229508   1 C  s                16      1.229483   2 C  s         
     4      1.132560   1 C  s                19     -1.132536   2 C  s         
 

   alpha - beta orbital overlaps 
   ----------------------------- 


   alpha      1      2      3      4      5      6      7      8      9     10
    beta      1      2      3      4      5      6      7      8      9     10
 overlap   1.000  1.000  1.000  1.000  0.999  1.000  0.999  0.999  1.000  0.999


   alpha     11     12     13     14     15     16     17     18     19     20
    beta     11     12     13     14     15     16     17     18     19     20
 overlap   0.991  1.000  1.000  0.999  1.000  0.991  0.999  1.000  0.999  1.000


   alpha     21     22     23     24     25     26     27     28     29     30
    beta     21     22     23     24     25     26     27     28     29     31
 overlap   0.998  1.000  0.999  0.999  1.000  0.999  0.995  0.999  0.999  0.995


   alpha     31     32     33     34     35     36     37     38     39     40
    beta     30     32     33     34     35     36     37     38     39     40
 overlap   0.995  1.000  0.994  0.980  0.994  0.979  1.000  0.992  0.999  0.999


   alpha     41     42     43     44     45     46     47     48     49     50
    beta     41     42     43     44     45     46     47     48     49     50
 overlap   1.000  0.993  1.000  1.000  0.996  0.998  0.996  0.998  0.999  0.999


   alpha     51     52     53     54     55     56     57     58     59     60
    beta     51     52     53     54     55     57     56     58     59     60
 overlap   0.998  0.999  1.000  0.996  1.000  0.996  1.000  0.996  1.000  1.000


   alpha     61     62     63     64     65     66     67     68     69     70
    beta     61     62     63     64     65     66     67     68     69     71
 overlap   0.996  1.000  1.000  1.000  0.999  1.000  0.998  1.000  0.999  1.000


   alpha     71     72     73     74     75     76     77     78     79     80
    beta     70     73     72     74     75     76     77     78     79     80
 overlap   1.000  0.999  1.000  1.000  1.000  1.000  1.000  1.000  1.000  1.000


   alpha     81     82     83     84
    beta     81     82     83     84
 overlap   1.000  1.000  1.000  1.000

     --------------------------
     Expectation value of S2:  
     --------------------------
      <S2> =      0.7517 (Exact =     0.7500)
 

 center of mass
 --------------
 x =  -0.01532698 y =   0.02212499 z =  -0.05128875

 moments of inertia (a.u.)
 ------------------
         315.661061152034         140.931488664450          73.337535972621
         140.931488664450         295.019161509948         -69.138578835156
          73.337535972621         -69.138578835156         305.946350866981
 
     Multipole analysis of the density
     ---------------------------------
 
     L   x y z        total         alpha         beta         nuclear
     -   - - -        -----         -----         ----         -------
     0   0 0 0      1.000000    -16.000000    -15.000000     32.000000
 
     1   1 0 0     -0.080610      0.056840     -0.137450      0.000000
     1   0 1 0      0.116248     -0.082070      0.198318     -0.000000
     1   0 0 1     -0.269631      0.190214     -0.459845      0.000000
 
     2   2 0 0    -13.602794    -54.728507    -51.316393     92.442107
     2   1 1 0     -3.800994     42.316151     41.143457    -87.260602
     2   1 0 1     -1.799576     21.784522     20.884690    -44.468788
     2   0 2 0    -13.009222    -60.976057    -57.455297    105.422132
     2   0 1 1      1.623074    -20.440644    -19.474919     41.538637
     2   0 0 2    -12.901101    -58.226814    -55.447521    100.773234
 

 Task  times  cpu:        2.9s     wall:        3.1s
 
 
                                NWChem Input Module
                                -------------------
 
 
 Summary of allocated global arrays
-----------------------------------
  No active global arrays



                         GA Statistics for process    0
                         ------------------------------

       create   destroy   get      put      acc     scatter   gather  read&inc
calls:  291      291     1.78e+04 2473     1.43e+04    0        0      404     
number of processes/call 1.06e+01 4.14e+01 6.29e+00 0.00e+00 0.00e+00
bytes total:             3.61e+07 5.05e+06 1.86e+07 0.00e+00 0.00e+00 3.23e+03
bytes remote:            2.98e+07 2.93e+06 1.61e+07 0.00e+00 0.00e+00 0.00e+00
Max memory consumed for GA by this process: 459552 bytes
 
 
 
                                     CITATION
                                     --------
                Please cite the following reference when publishing
                           results obtained with NWChem:
 
          E. Apr, E. J. Bylaska, W. A. de Jong, N. Govind, K. Kowalski,
       T. P. Straatsma, M. Valiev, H. J. J. van Dam, Y. Alexeev, J. Anchell,
       V. Anisimov, F. W. Aquino, R. Atta-Fynn, J. Autschbach, N. P. Bauman,
     J. C. Becca, D. E. Bernholdt, K. Bhaskaran-Nair, S. Bogatko, P. Borowski,
        J. Boschen, J. Brabec, A. Bruner, E. Caut, Y. Chen, G. N. Chuev,
      C. J. Cramer, J. Daily, M. J. O. Deegan, T. H. Dunning Jr., M. Dupuis,
   K. G. Dyall, G. I. Fann, S. A. Fischer, A. Fonari, H. Frchtl, L. Gagliardi,
      J. Garza, N. Gawande, S. Ghosh, K. Glaesemann, A. W. Gtz, J. Hammond,
       V. Helms, E. D. Hermes, K. Hirao, S. Hirata, M. Jacquelin, L. Jensen,
   B. G. Johnson, H. Jnsson, R. A. Kendall, M. Klemm, R. Kobayashi, V. Konkov,
      S. Krishnamoorthy, M. Krishnan, Z. Lin, R. D. Lins, R. J. Littlefield,
      A. J. Logsdail, K. Lopata, W. Ma, A. V. Marenich, J. Martin del Campo,
   D. Mejia-Rodriguez, J. E. Moore, J. M. Mullin, T. Nakajima, D. R. Nascimento,
    J. A. Nichols, P. J. Nichols, J. Nieplocha, A. Otero-de-la-Roza, B. Palmer,
    A. Panyala, T. Pirojsirikul, B. Peng, R. Peverati, J. Pittner, L. Pollack,
   R. M. Richard, P. Sadayappan, G. C. Schatz, W. A. Shelton, D. W. Silverstein,
   D. M. A. Smith, T. A. Soares, D. Song, M. Swart, H. L. Taylor, G. S. Thomas,
            V. Tipparaju, D. G. Truhlar, K. Tsemekhman, T. Van Voorhis,
     . Vzquez-Mayagoitia, P. Verma, O. Villa, A. Vishnu, K. D. Vogiatzis,
        D. Wang, J. H. Weare, M. J. Williamson, T. L. Windus, K. Woliski,
        A. T. Wong, Q. Wu, C. Yang, Q. Yu, M. Zacharias, Z. Zhang, Y. Zhao,
                                and R. J. Harrison
                        "NWChem: Past, present, and future
                         J. Chem. Phys. 152, 184102 (2020)
                               doi:10.1063/5.0004997
 
                                      AUTHORS
                                      -------
     E. Apra, E. J. Bylaska, N. Govind, K. Kowalski, M. Valiev, W. A. de Jong,
      T. P. Straatsma, H. J. J. van Dam, D. Wang, T. L. Windus, N. P. Bauman,
       A. Panyala, J. Hammond, J. Autschbach, K. Bhaskaran-Nair, J. Brabec,
    K. Lopata, S. A. Fischer, S. Krishnamoorthy, M. Jacquelin, W. Ma, M. Klemm,
       O. Villa, Y. Chen, V. Anisimov, F. Aquino, S. Hirata, M. T. Hackler,
           Eric Hermes, L. Jensen, J. E. Moore, J. C. Becca, V. Konjkov,
            D. Mejia-Rodriguez, T. Risthaus, M. Malagoli, A. Marenich,
   A. Otero-de-la-Roza, J. Mullin, P. Nichols, R. Peverati, J. Pittner, Y. Zhao,
        P.-D. Fan, A. Fonari, M. J. Williamson, R. J. Harrison, J. R. Rehr,
      M. Dupuis, D. Silverstein, D. M. A. Smith, J. Nieplocha, V. Tipparaju,
      M. Krishnan, B. E. Van Kuiken, A. Vazquez-Mayagoitia, M. Swart, Q. Wu,
   T. Van Voorhis, A. A. Auer, M. Nooijen, L. D. Crosby, E. Brown, G. Cisneros,
     G. I. Fann, H. Fruchtl, J. Garza, K. Hirao, R. A. Kendall, J. A. Nichols,
       K. Tsemekhman, K. Wolinski, J. Anchell, D. E. Bernholdt, P. Borowski,
       T. Clark, D. Clerc, H. Dachsel, M. J. O. Deegan, K. Dyall, D. Elwood,
      E. Glendening, M. Gutowski, A. C. Hess, J. Jaffe, B. G. Johnson, J. Ju,
        R. Kobayashi, R. Kutteh, Z. Lin, R. Littlefield, X. Long, B. Meng,
      T. Nakajima, S. Niu, L. Pollack, M. Rosing, K. Glaesemann, G. Sandrone,
      M. Stave, H. Taylor, G. Thomas, J. H. van Lenthe, A. T. Wong, Z. Zhang.

 Total times  cpu:        2.9s     wall:        3.2s
