 
             Northwest Computational Chemistry Package (NWChem) 7.0.0
             --------------------------------------------------------
 
 
                    Environmental Molecular Sciences Laboratory
                       Pacific Northwest National Laboratory
                                Richland, WA 99352
 
                              Copyright (c) 1994-2020
                       Pacific Northwest National Laboratory
                            Battelle Memorial Institute
 
             NWChem is an open-source computational chemistry package
                        distributed under the terms of the
                      Educational Community License (ECL) 2.0
             A copy of the license is included with this distribution
                              in the LICENSE.TXT file
 
                                  ACKNOWLEDGMENT
                                  --------------

            This software and its documentation were developed at the
            EMSL at Pacific Northwest National Laboratory, a multiprogram
            national laboratory, operated for the U.S. Department of Energy
            by Battelle under Contract Number DE-AC05-76RL01830. Support
            for this work was provided by the Department of Energy Office
            of Biological and Environmental Research, Office of Basic
            Energy Sciences, and the Office of Advanced Scientific Computing.


                                NWChem Input Module
                                -------------------
 
 
 Summary of "ao basis" -> "" (spherical)
 ------------------------------------------------------------------------------
       Tag                 Description            Shells   Functions and Types
 ---------------- ------------------------------  ------  ---------------------
 *                        ahlrichs_vtz                on all atoms 



 Scaling coordinates for geometry "geometry" by  1.889725989
 (inverse scale =  0.529177249)

 
 
                             Geometry "geometry" -> ""
                             -------------------------
 
 Output coordinates in angstroms (scale by  1.889725989 to convert to a.u.)
 
  No.       Tag          Charge          X              Y              Z
 ---- ---------------- ---------- -------------- -------------- --------------
    1 C                    6.0000    -0.59951542     0.80255290    -0.45086700
    2 C                    6.0000     0.14730898    -0.12593532    -1.07900314
    3 H                    1.0000    -1.14306562     1.52624786    -1.07136544
    4 C                    6.0000    -0.81485580     0.96357688     1.03284389
    5 H                    1.0000     0.18365486    -0.09619679    -2.17537706
    6 C                    6.0000     0.98493478    -1.21298255    -0.45422950
    7 H                    1.0000    -0.16330706     0.28229710     1.60062608
    8 C                    6.0000    -2.28520694     0.72831045     1.43924501
    9 H                    1.0000    -0.52461462     1.98779524     1.32934551
   10 H                    1.0000     0.65689280    -2.19164826    -0.84908226
   11 H                    1.0000     0.82891853    -1.25237448     0.63440293
   12 C                    6.0000     2.48886326    -1.03724383    -0.75344393
   13 H                    1.0000    -2.59253338    -0.30192419     1.20706133
   14 H                    1.0000    -2.95897360     1.40842205     0.89538071
   15 H                    1.0000    -2.43076033     0.89763007     2.51673434
   16 H                    1.0000     2.67514939    -1.00996138    -1.83828541
   17 H                    1.0000     3.07692345    -1.86517979    -0.32973242
   18 H                    1.0000     2.86254233    -0.09477864    -0.32698040
 
      Atomic Mass 
      ----------- 
 
      C                 12.000000
      H                  1.007825
 

 Effective nuclear repulsion energy (a.u.)     229.6861571680

            Nuclear Dipole moment (a.u.) 
            ----------------------------
        X                 Y               Z
 ---------------- ---------------- ----------------
     0.0000000000    -0.0000000000    -0.0000000000
 
 
            XYZ format geometry
            -------------------
    18
 geometry
 C                    -0.59951542     0.80255290    -0.45086700
 C                     0.14730898    -0.12593532    -1.07900314
 H                    -1.14306562     1.52624786    -1.07136544
 C                    -0.81485580     0.96357688     1.03284389
 H                     0.18365486    -0.09619679    -2.17537706
 C                     0.98493478    -1.21298255    -0.45422950
 H                    -0.16330706     0.28229710     1.60062608
 C                    -2.28520694     0.72831045     1.43924501
 H                    -0.52461462     1.98779524     1.32934551
 H                     0.65689280    -2.19164826    -0.84908226
 H                     0.82891853    -1.25237448     0.63440293
 C                     2.48886326    -1.03724383    -0.75344393
 H                    -2.59253338    -0.30192419     1.20706133
 H                    -2.95897360     1.40842205     0.89538071
 H                    -2.43076033     0.89763007     2.51673434
 H                     2.67514939    -1.00996138    -1.83828541
 H                     3.07692345    -1.86517979    -0.32973242
 H                     2.86254233    -0.09477864    -0.32698040
 
 ==============================================================================
                                internuclear distances
 ------------------------------------------------------------------------------
       center one      |      center two      | atomic units |  angstroms
 ------------------------------------------------------------------------------
    2 C                |   1 C                |     2.54545  |     1.34699
    3 H                |   1 C                |     2.07371  |     1.09736
    4 C                |   1 C                |     2.84948  |     1.50788
    5 H                |   2 C                |     2.07375  |     1.09738
    6 C                |   2 C                |     2.84944  |     1.50786
    7 H                |   4 C                |     2.07959  |     1.10047
    8 C                |   4 C                |     2.91682  |     1.54352
    9 H                |   4 C                |     2.08828  |     1.10507
   10 H                |   6 C                |     2.08839  |     1.10513
   11 H                |   6 C                |     2.07957  |     1.10046
   12 C                |   6 C                |     2.91668  |     1.54344
   13 H                |   8 C                |     2.07848  |     1.09988
   14 H                |   8 C                |     2.08067  |     1.10105
   15 H                |   8 C                |     2.07942  |     1.10038
   16 H                |  12 C                |     2.08070  |     1.10106
   17 H                |  12 C                |     2.07941  |     1.10037
   18 H                |  12 C                |     2.07848  |     1.09989
 ------------------------------------------------------------------------------
                         number of included internuclear distances:         17
 ==============================================================================



 ==============================================================================
                                 internuclear angles
 ------------------------------------------------------------------------------
        center 1       |       center 2       |       center 3       |  degrees
 ------------------------------------------------------------------------------
    2 C                |   1 C                |   3 H                |   117.74
    2 C                |   1 C                |   4 C                |   127.71
    3 H                |   1 C                |   4 C                |   114.53
    1 C                |   2 C                |   5 H                |   117.75
    1 C                |   2 C                |   6 C                |   127.71
    5 H                |   2 C                |   6 C                |   114.53
    1 C                |   4 C                |   7 H                |   110.92
    1 C                |   4 C                |   8 C                |   112.26
    1 C                |   4 C                |   9 H                |   108.99
    7 H                |   4 C                |   8 C                |   109.50
    7 H                |   4 C                |   9 H                |   106.25
    8 C                |   4 C                |   9 H                |   108.71
    2 C                |   6 C                |  10 H                |   109.00
    2 C                |   6 C                |  11 H                |   110.91
    2 C                |   6 C                |  12 C                |   112.26
   10 H                |   6 C                |  11 H                |   106.24
   10 H                |   6 C                |  12 C                |   108.71
   11 H                |   6 C                |  12 C                |   109.51
    4 C                |   8 C                |  13 H                |   110.69
    4 C                |   8 C                |  14 H                |   111.02
    4 C                |   8 C                |  15 H                |   111.12
   13 H                |   8 C                |  14 H                |   107.66
   13 H                |   8 C                |  15 H                |   108.29
   14 H                |   8 C                |  15 H                |   107.92
    6 C                |  12 C                |  16 H                |   111.02
    6 C                |  12 C                |  17 H                |   111.13
    6 C                |  12 C                |  18 H                |   110.70
   16 H                |  12 C                |  17 H                |   107.92
   16 H                |  12 C                |  18 H                |   107.66
   17 H                |  12 C                |  18 H                |   108.29
 ------------------------------------------------------------------------------
                            number of included internuclear angles:         30
 ==============================================================================



                              Aldehyde and Ketone set
                              -----------------------
 
                                 NWChem DFT Module
                                 -----------------
 
 
                              Aldehyde and Ketone set
 
 
                      Basis "ao basis" -> "ao basis" (spherical)
                      -----
  C (Carbon)
  ----------
            Exponent  Coefficients 
       -------------- ---------------------------------------------------------
  1 S  8.50603840E+03  0.000534
  1 S  1.27573290E+03  0.004125
  1 S  2.90311870E+02  0.021171
  1 S  8.20562000E+01  0.082418
  1 S  2.64796410E+01  0.240129
 
  2 S  9.24145850E+00  1.000000
 
  3 S  3.36435300E+00  1.000000
 
  4 S  8.71741640E-01  1.000000
 
  5 S  3.63523520E-01  1.000000
 
  6 S  1.28731350E-01  1.000000
 
  7 P  3.47094960E+01  0.005330
  7 P  7.95908830E+00  0.035866
  7 P  2.37869720E+00  0.142003
  7 P  8.15400650E-01  0.342031
 
  8 P  2.89537850E-01  1.000000
 
  9 P  1.00847540E-01  1.000000
 
  H (Hydrogen)
  ------------
            Exponent  Coefficients 
       -------------- ---------------------------------------------------------
  1 S  3.40613410E+01  0.006025
  1 S  5.12357460E+00  0.045021
  1 S  1.16466260E+00  0.201897
 
  2 S  3.27230410E-01  1.000000
 
  3 S  1.03072410E-01  1.000000
 


 Summary of "ao basis" -> "ao basis" (spherical)
 ------------------------------------------------------------------------------
       Tag                 Description            Shells   Functions and Types
 ---------------- ------------------------------  ------  ---------------------
 C                        ahlrichs vtz               9       15   6s3p
 H                        ahlrichs vtz               3        3   3s




 Summary of "ao basis" -> "ao basis" (spherical)
 ------------------------------------------------------------------------------
       Tag                 Description            Shells   Functions and Types
 ---------------- ------------------------------  ------  ---------------------
 C                        ahlrichs vtz               9       15   6s3p
 H                        ahlrichs vtz               3        3   3s


  Caching 1-el integrals 
 
            General Information
            -------------------
          SCF calculation type: DFT
          Wavefunction type:  spin polarized.
          No. of atoms     :    18
          No. of electrons :    47
           Alpha electrons :    24
            Beta electrons :    23
          Charge           :     1
          Spin multiplicity:     2
          Use of symmetry is: off; symmetry adaption is: off
          Maximum number of iterations: 999
          This is a Direct SCF calculation.
          AO basis - number of functions:   126
                     number of shells:    90
          Convergence on energy requested:  1.00D-08
          Convergence on density requested:  1.00D-07
          Convergence on gradient requested:  1.00D-06
 
              XC Information
              --------------
                        PBE96 Method XC Functional
          PerdewBurkeErnzerhof Exchange Functional  1.000          
            Perdew 1991 LDA Correlation Functional  1.000 local    
           PerdewBurkeErnz. Correlation Functional  1.000 non-local
 
             Grid Information
             ----------------
          Grid used for XC integration:  fine      
          Radial quadrature: Mura-Knowles        
          Angular quadrature: Lebedev. 
          Tag              B.-S. Rad. Rad. Pts. Rad. Cut. Ang. Pts.
          ---              ---------- --------- --------- ---------
          C                   0.70       70          15.0       590
          H                   0.35       60          16.0       590
          Grid pruning is: on 
          Number of quadrature shells:  1140
          Spatial weights used:  Erf1
 
          Convergence Information
          -----------------------
          Convergence aids based upon iterative change in 
          total energy or number of iterations. 
          Levelshifting, if invoked, occurs when the 
          HOMO/LUMO gap drops below (HL_TOL):  1.00D-02
          DIIS, if invoked, will attempt to extrapolate 
          using up to (NFOCK): 10 stored Fock matrices.

                    Damping( 0%)  Levelshifting(0.5)       DIIS
                  --------------- ------------------- ---------------
          dE  on:    start            ASAP                start   
          dE off:    2 iters        999 iters           999 iters 

 
      Screening Tolerance Information
      -------------------------------
          Density screening/tol_rho:  1.00D-12
          AO Gaussian exp screening on grid/accAOfunc:  18
          CD Gaussian exp screening on grid/accCDfunc:  20
          XC Gaussian exp screening on grid/accXCfunc:  20
          Schwarz screening/accCoul:  1.00D-12

      Dispersion Parameters
      ---------------------

           DFT-D3BJ Model   
          s6 scale factor  :        1.000000000000
          s8 scale factor  :        0.787500000000
          a1 parameter     :        0.428900000000
          a2 parameter     :        4.440700000000
              vdW contrib  :       -0.013571138934


 Forcing the number of linearly dependent vectors to be  0
 
      Superposition of Atomic Density Guess
      -------------------------------------
 
 Sum of atomic energies:        -232.02458117
   Time after variat. SCF:      0.1
   Time prior to 1st pass:      0.1

 Grid_pts file          = ./18_cisEtCHCHEt.gridpts.00
 Record size in doubles =  12289        No. of grid_pts per rec  =   3070
 Max. records in memory =     18        Max. recs in file   =  67550051

 Grid integrated density:      48.000025910245
 Requested integration accuracy:   0.10E-06

           Memory utilization after 1st SCF pass: 
           Heap Space remaining (MW):        0.00                 242
          Stack Space remaining (MW):      288.36           288356460

   convergence    iter        energy       DeltaE   RMS-Dens  Diis-err    time
 ---------------- ----- ----------------- --------- --------- ---------  ------
 d= 0,ls=0.0,diis     1   -236.1727663625 -4.66D+02  1.27D-02  1.77D+01     0.6
                                                     1.22D-02  1.62D+01
 Grid integrated density:      47.000010477163
 Requested integration accuracy:   0.10E-06
 d= 0,ls=0.0,diis     2   -235.0237398437  1.15D+00  6.78D-03  3.65D-01     1.3
                                                     6.82D-03  3.55D-01
 Grid integrated density:      47.000012955080
 Requested integration accuracy:   0.10E-06
 d= 0,ls=0.0,diis     3   -234.6431096154  3.81D-01  4.76D-03  9.62D-01     2.0
                                                     5.27D-03  9.44D-01
 Grid integrated density:      47.000013349840
 Requested integration accuracy:   0.10E-06
 d= 0,ls=0.0,diis     4   -235.1806181111 -5.38D-01  1.28D-03  5.15D-02     2.8
                                                     1.49D-03  4.86D-02
 Grid integrated density:      47.000012518994
 Requested integration accuracy:   0.10E-06
 d= 0,ls=0.0,diis     5   -235.2098150659 -2.92D-02  3.89D-04  3.50D-03     3.5
                                                     4.56D-04  3.38D-03
 Grid integrated density:      47.000012436614
 Requested integration accuracy:   0.10E-06
 d= 0,ls=0.0,diis     6   -235.2119638264 -2.15D-03  9.96D-05  1.10D-04     4.2
                                                     1.04D-04  1.04D-04
 Grid integrated density:      47.000012480944
 Requested integration accuracy:   0.10E-06
 d= 0,ls=0.0,diis     7   -235.2120399990 -7.62D-05  2.03D-05  1.02D-05     4.9
                                                     2.19D-05  1.17D-05
 Grid integrated density:      47.000012476502
 Requested integration accuracy:   0.10E-06
 d= 0,ls=0.0,diis     8   -235.2120453747 -5.38D-06  8.42D-06  1.56D-06     5.7
                                                     7.37D-06  1.10D-06
 Grid integrated density:      47.000012473490
 Requested integration accuracy:   0.10E-06
 d= 0,ls=0.0,diis     9   -235.2120461440 -7.69D-07  2.46D-06  3.38D-08     6.4
                                                     2.75D-06  5.79D-08
 Grid integrated density:      47.000012474493
 Requested integration accuracy:   0.10E-06
 d= 0,ls=0.0,diis    10   -235.2120461712 -2.72D-08  9.55D-07  2.03D-08     7.1
                                                     1.21D-06  2.12D-08
 Grid integrated density:      47.000012474229
 Requested integration accuracy:   0.10E-06
 d= 0,ls=0.0,diis    11   -235.2120461817 -1.05D-08  4.65D-07  5.48D-09     7.8
                                                     5.15D-07  5.26D-09
 Grid integrated density:      47.000012474185
 Requested integration accuracy:   0.10E-06
 d= 0,ls=0.0,diis    12   -235.2120461852 -3.48D-09  1.32D-07  1.14D-10     8.5
                                                     1.23D-07  1.08D-10
 Grid integrated density:      47.000012474240
 Requested integration accuracy:   0.10E-06
 d= 0,ls=0.0,diis    13   -235.2120461852 -8.87D-11  3.47D-08  1.72D-11     9.3
                                                     2.92D-08  1.53D-11


         Total DFT energy =     -235.212046185243
      One electron energy =     -760.299715344087
           Coulomb energy =      331.718799857195
          Exchange energy =      -34.800643268489
       Correlation energy =       -1.503073458924
 Nuclear repulsion energy =      229.686157167997

    Dispersion correction =       -0.013571138934

 Numeric. integr. density =       47.000012474240

     Total iterative time =      9.1s


 
                    DFT Final Alpha Molecular Orbital Analysis
                    ------------------------------------------
 
 Vector    1  Occ=1.000000D+00  E=-1.015922D+01
              MO Center= -2.2D-01,  3.4D-01, -7.7D-01, r^2= 4.8D-01
   Bfn.  Coefficient  Atom+Function         Bfn.  Coefficient  Atom+Function  
  ----- ------------  ---------------      ----- ------------  ---------------
    17      0.300714   2 C  s                 2      0.298815   1 C  s         
    18      0.255237   2 C  s                 3      0.253629   1 C  s         
    16      0.218974   2 C  s                 1      0.217592   1 C  s         
    19      0.040804   2 C  s                 4      0.040540   1 C  s         
 
 Vector    2  Occ=1.000000D+00  E=-1.015861D+01
              MO Center= -2.3D-01,  3.4D-01, -7.6D-01, r^2= 4.8D-01
   Bfn.  Coefficient  Atom+Function         Bfn.  Coefficient  Atom+Function  
  ----- ------------  ---------------      ----- ------------  ---------------
     2      0.300953   1 C  s                17     -0.299056   2 C  s         
     3      0.254785   1 C  s                18     -0.253175   2 C  s         
     1      0.218987   1 C  s                16     -0.217605   2 C  s         
     4      0.042098   1 C  s                19     -0.041839   2 C  s         
 
 Vector    3  Occ=1.000000D+00  E=-1.009955D+01
              MO Center=  9.8D-01, -1.2D+00, -4.5D-01, r^2= 3.0D-02
   Bfn.  Coefficient  Atom+Function         Bfn.  Coefficient  Atom+Function  
  ----- ------------  ---------------      ----- ------------  ---------------
    53      0.424263   6 C  s                54      0.359292   6 C  s         
    52      0.308794   6 C  s                55      0.057951   6 C  s         
 
 Vector    4  Occ=1.000000D+00  E=-1.009948D+01
              MO Center= -8.1D-01,  9.6D-01,  1.0D+00, r^2= 3.0D-02
   Bfn.  Coefficient  Atom+Function         Bfn.  Coefficient  Atom+Function  
  ----- ------------  ---------------      ----- ------------  ---------------
    35      0.424263   4 C  s                36      0.359295   4 C  s         
    34      0.308794   4 C  s                37      0.057940   4 C  s         
 
 Vector    5  Occ=1.000000D+00  E=-1.006071D+01
              MO Center= -2.3D+00,  7.3D-01,  1.4D+00, r^2= 2.8D-02
   Bfn.  Coefficient  Atom+Function         Bfn.  Coefficient  Atom+Function  
  ----- ------------  ---------------      ----- ------------  ---------------
    71      0.424237   8 C  s                72      0.359475   8 C  s         
    70      0.308826   8 C  s                73      0.057489   8 C  s         
 
 Vector    6  Occ=1.000000D+00  E=-1.006059D+01
              MO Center=  2.5D+00, -1.0D+00, -7.5D-01, r^2= 2.8D-02
   Bfn.  Coefficient  Atom+Function         Bfn.  Coefficient  Atom+Function  
  ----- ------------  ---------------      ----- ------------  ---------------
    95      0.424238  12 C  s                96      0.359474  12 C  s         
    94      0.308826  12 C  s                97      0.057489  12 C  s         
 
 Vector    7  Occ=1.000000D+00  E=-9.824840D-01
              MO Center= -1.6D-01,  2.3D-01, -5.3D-01, r^2= 1.7D+00
   Bfn.  Coefficient  Atom+Function         Bfn.  Coefficient  Atom+Function  
  ----- ------------  ---------------      ----- ------------  ---------------
     5      0.343853   1 C  s                20      0.343897   2 C  s         
    38      0.161537   4 C  s                56      0.161645   6 C  s         
     3     -0.102589   1 C  s                18     -0.102601   2 C  s         
     2     -0.080282   1 C  s                17     -0.080292   2 C  s         
     4      0.076398   1 C  s                19      0.076407   2 C  s         
 
 Vector    8  Occ=1.000000D+00  E=-9.012075D-01
              MO Center=  2.9D-02, -4.3D-02,  9.7D-02, r^2= 4.5D+00
   Bfn.  Coefficient  Atom+Function         Bfn.  Coefficient  Atom+Function  
  ----- ------------  ---------------      ----- ------------  ---------------
    38      0.297181   4 C  s                56     -0.297314   6 C  s         
    74      0.188056   8 C  s                98     -0.188025  12 C  s         
     5      0.154209   1 C  s                20     -0.154109   2 C  s         
    36     -0.079853   4 C  s                54      0.079894   6 C  s         
    35     -0.064788   4 C  s                53      0.064819   6 C  s         
 
 Vector    9  Occ=1.000000D+00  E=-8.602800D-01
              MO Center=  9.7D-03, -1.6D-02,  3.8D-02, r^2= 5.3D+00
   Bfn.  Coefficient  Atom+Function         Bfn.  Coefficient  Atom+Function  
  ----- ------------  ---------------      ----- ------------  ---------------
    74      0.238292   8 C  s                98      0.237936  12 C  s         
    38      0.229370   4 C  s                56      0.229347   6 C  s         
     5     -0.165847   1 C  s                20     -0.165812   2 C  s         
     9      0.094418   1 C  pz               23     -0.088261   2 C  py        
    75      0.074404   8 C  s                99      0.074387  12 C  s         
 
 Vector   10  Occ=1.000000D+00  E=-7.711525D-01
              MO Center=  2.6D-03, -6.5D-03,  1.5D-02, r^2= 6.9D+00
   Bfn.  Coefficient  Atom+Function         Bfn.  Coefficient  Atom+Function  
  ----- ------------  ---------------      ----- ------------  ---------------
    74      0.293787   8 C  s                98     -0.293546  12 C  s         
     5     -0.216578   1 C  s                20      0.216586   2 C  s         
    75      0.105088   8 C  s                99     -0.105030  12 C  s         
    38     -0.099034   4 C  s                56      0.098437   6 C  s         
    58     -0.092007   6 C  px               72     -0.077345   8 C  s         
 
 Vector   11  Occ=1.000000D+00  E=-7.470847D-01
              MO Center=  4.4D-02, -6.3D-02,  1.3D-01, r^2= 6.5D+00
   Bfn.  Coefficient  Atom+Function         Bfn.  Coefficient  Atom+Function  
  ----- ------------  ---------------      ----- ------------  ---------------
    74      0.259077   8 C  s                98      0.259653  12 C  s         
    38     -0.195474   4 C  s                56     -0.195879   6 C  s         
     9     -0.122776   1 C  pz               75      0.114299   8 C  s         
    99      0.114465  12 C  s                23      0.094019   2 C  py        
    12     -0.086687   1 C  pz               39     -0.083658   4 C  s         
 
 Vector   12  Occ=1.000000D+00  E=-6.868514D-01
              MO Center= -6.5D-02,  9.7D-02, -2.2D-01, r^2= 4.6D+00
   Bfn.  Coefficient  Atom+Function         Bfn.  Coefficient  Atom+Function  
  ----- ------------  ---------------      ----- ------------  ---------------
     5      0.229879   1 C  s                20     -0.229994   2 C  s         
    38     -0.205046   4 C  s                56      0.204563   6 C  s         
    42     -0.100951   4 C  pz               39     -0.096883   4 C  s         
    57      0.096690   6 C  s                24      0.095179   2 C  pz        
    32      0.091705   3 H  s                50     -0.091969   5 H  s         
 
 Vector   13  Occ=1.000000D+00  E=-6.605810D-01
              MO Center= -1.8D-01,  2.7D-01, -6.1D-01, r^2= 3.1D+00
   Bfn.  Coefficient  Atom+Function         Bfn.  Coefficient  Atom+Function  
  ----- ------------  ---------------      ----- ------------  ---------------
    24      0.221666   2 C  pz                8     -0.196505   1 C  py        
    27      0.175792   2 C  pz               11     -0.145582   1 C  py        
     7      0.141158   1 C  px               41     -0.105871   4 C  py        
    10      0.102806   1 C  px               32     -0.099997   3 H  s         
    50     -0.099735   5 H  s                60      0.096752   6 C  pz        
 
 Vector   14  Occ=1.000000D+00  E=-6.077648D-01
              MO Center=  1.9D-02, -2.9D-02,  7.3D-02, r^2= 4.2D+00
   Bfn.  Coefficient  Atom+Function         Bfn.  Coefficient  Atom+Function  
  ----- ------------  ---------------      ----- ------------  ---------------
     9      0.190663   1 C  pz               42     -0.189657   4 C  pz        
    59      0.159022   6 C  py               12      0.152866   1 C  pz        
    23     -0.142413   2 C  py               45     -0.138007   4 C  pz        
    22      0.133598   2 C  px               62      0.119943   6 C  py        
    25      0.107786   2 C  px               26     -0.105930   2 C  py        
 
 Vector   15  Occ=1.000000D+00  E=-5.932824D-01
              MO Center=  2.2D-02, -2.8D-02,  4.1D-02, r^2= 5.2D+00
   Bfn.  Coefficient  Atom+Function         Bfn.  Coefficient  Atom+Function  
  ----- ------------  ---------------      ----- ------------  ---------------
    41      0.170148   4 C  py               59      0.150346   6 C  py        
    44      0.147366   4 C  py               62      0.128971   6 C  py        
    22      0.117588   2 C  px                8      0.108458   1 C  py        
    11      0.103075   1 C  py               25      0.100282   2 C  px        
    89     -0.091905  10 H  s                77      0.090910   8 C  py        
 
 Vector   16  Occ=1.000000D+00  E=-5.664435D-01
              MO Center=  1.2D-02, -2.8D-02,  9.0D-02, r^2= 5.7D+00
   Bfn.  Coefficient  Atom+Function         Bfn.  Coefficient  Atom+Function  
  ----- ------------  ---------------      ----- ------------  ---------------
    41      0.160613   4 C  py               44      0.143559   4 C  py        
    24      0.125554   2 C  pz               77      0.120053   8 C  py        
    60     -0.115567   6 C  pz                7      0.106065   1 C  px        
    80      0.105317   8 C  py              102     -0.102519  12 C  pz        
    27      0.100276   2 C  pz               63     -0.097277   6 C  pz        
 
 Vector   17  Occ=1.000000D+00  E=-5.503396D-01
              MO Center=  4.6D-02, -7.8D-02,  1.9D-01, r^2= 6.4D+00
   Bfn.  Coefficient  Atom+Function         Bfn.  Coefficient  Atom+Function  
  ----- ------------  ---------------      ----- ------------  ---------------
    40      0.137415   4 C  px              100     -0.135788  12 C  px        
    60     -0.129682   6 C  pz               43      0.123042   4 C  px        
    77     -0.119955   8 C  py               63     -0.117168   6 C  pz        
    78      0.115556   8 C  pz              102     -0.114866  12 C  pz        
   103     -0.108553  12 C  px              105     -0.104565  12 C  pz        
 
 Vector   18  Occ=1.000000D+00  E=-5.355983D-01
              MO Center= -7.1D-02,  1.0D-01, -2.3D-01, r^2= 5.8D+00
   Bfn.  Coefficient  Atom+Function         Bfn.  Coefficient  Atom+Function  
  ----- ------------  ---------------      ----- ------------  ---------------
     9      0.143311   1 C  pz               24     -0.136000   2 C  pz        
    42     -0.133597   4 C  pz               58      0.133459   6 C  px        
    76     -0.124699   8 C  px               12      0.121196   1 C  pz        
    61      0.118143   6 C  px               45     -0.117455   4 C  pz        
    23      0.115038   2 C  py               27     -0.115319   2 C  pz        
 
 Vector   19  Occ=1.000000D+00  E=-5.264134D-01
              MO Center=  8.8D-02, -1.2D-01,  2.4D-01, r^2= 6.4D+00
   Bfn.  Coefficient  Atom+Function         Bfn.  Coefficient  Atom+Function  
  ----- ------------  ---------------      ----- ------------  ---------------
   100      0.204552  12 C  px               40      0.187231   4 C  px        
    58     -0.185321   6 C  px               43      0.167562   4 C  px        
    76     -0.167797   8 C  px              103      0.163770  12 C  px        
    61     -0.162740   6 C  px               79     -0.130505   8 C  px        
    23     -0.111261   2 C  py                8      0.109241   1 C  py        
 
 Vector   20  Occ=1.000000D+00  E=-4.975490D-01
              MO Center=  1.1D-01, -1.6D-01,  3.7D-01, r^2= 9.0D+00
   Bfn.  Coefficient  Atom+Function         Bfn.  Coefficient  Atom+Function  
  ----- ------------  ---------------      ----- ------------  ---------------
    78      0.196781   8 C  pz               81      0.171312   8 C  pz        
   101     -0.162010  12 C  py              102      0.144246  12 C  pz        
   104     -0.139395  12 C  py              116      0.138469  15 H  s         
   122      0.138281  17 H  s               105      0.124467  12 C  pz        
   115      0.105305  15 H  s               121      0.105177  17 H  s         
 
 Vector   21  Occ=1.000000D+00  E=-4.880168D-01
              MO Center=  9.5D-02, -1.2D-01,  2.6D-01, r^2= 7.8D+00
   Bfn.  Coefficient  Atom+Function         Bfn.  Coefficient  Atom+Function  
  ----- ------------  ---------------      ----- ------------  ---------------
   101      0.186392  12 C  py              104      0.159785  12 C  py        
    77      0.142368   8 C  py               78      0.133710   8 C  pz        
    80      0.123255   8 C  py              125      0.123212  18 H  s         
   110     -0.121898  13 H  s               116      0.118697  15 H  s         
   122     -0.119113  17 H  s                81      0.113057   8 C  pz        
 
 Vector   22  Occ=1.000000D+00  E=-4.853461D-01
              MO Center=  7.4D-02, -1.2D-01,  2.7D-01, r^2= 7.6D+00
   Bfn.  Coefficient  Atom+Function         Bfn.  Coefficient  Atom+Function  
  ----- ------------  ---------------      ----- ------------  ---------------
    77      0.185273   8 C  py               80      0.160535   8 C  py        
   102     -0.143701  12 C  pz              110     -0.128169  13 H  s         
   125     -0.126975  18 H  s               101     -0.125192  12 C  py        
   105     -0.124787  12 C  pz               41     -0.123357   4 C  py        
   119      0.113995  16 H  s               113      0.113047  14 H  s         
 
 Vector   23  Occ=1.000000D+00  E=-4.753157D-01
              MO Center=  1.7D-02, -3.4D-02,  9.0D-02, r^2= 6.3D+00
   Bfn.  Coefficient  Atom+Function         Bfn.  Coefficient  Atom+Function  
  ----- ------------  ---------------      ----- ------------  ---------------
    60      0.158675   6 C  pz              102     -0.151613  12 C  pz        
    63      0.140728   6 C  pz              105     -0.133515  12 C  pz        
    68     -0.125578   7 H  s                92      0.124269  11 H  s         
   113     -0.124261  14 H  s                40     -0.123622   4 C  px        
   119      0.123315  16 H  s                76      0.122565   8 C  px        
 
 Vector   24  Occ=1.000000D+00  E=-4.629989D-01
              MO Center= -5.0D-02,  7.6D-02, -1.8D-01, r^2= 4.8D+00
   Bfn.  Coefficient  Atom+Function         Bfn.  Coefficient  Atom+Function  
  ----- ------------  ---------------      ----- ------------  ---------------
    25      0.184684   2 C  px               22      0.182921   2 C  px        
    10      0.170405   1 C  px                7      0.168254   1 C  px        
     8      0.139408   1 C  py               11      0.137708   1 C  py        
   100      0.126236  12 C  px               86     -0.120007   9 H  s         
    89      0.120566  10 H  s                23      0.117479   2 C  py        
 
 Vector   25  Occ=0.000000D+00  E=-2.681276D-01
              MO Center= -1.9D-01,  2.9D-01, -6.5D-01, r^2= 2.7D+00
   Bfn.  Coefficient  Atom+Function         Bfn.  Coefficient  Atom+Function  
  ----- ------------  ---------------      ----- ------------  ---------------
    28      0.342977   2 C  px               13     -0.334491   1 C  px        
    25      0.315104   2 C  px               10     -0.311433   1 C  px        
    22      0.270820   2 C  px                7     -0.269464   1 C  px        
    14     -0.270668   1 C  py               29      0.257944   2 C  py        
    11     -0.239821   1 C  py               26      0.234402   2 C  py        
 
 Vector   26  Occ=0.000000D+00  E=-1.455117D-01
              MO Center= -2.4D-01,  3.5D-01, -8.0D-01, r^2= 8.0D+00
   Bfn.  Coefficient  Atom+Function         Bfn.  Coefficient  Atom+Function  
  ----- ------------  ---------------      ----- ------------  ---------------
    39     -0.959180   4 C  s                57     -0.959568   6 C  s         
    33      0.927692   3 H  s                51      0.925829   5 H  s         
     6     -0.607656   1 C  s                21     -0.605575   2 C  s         
    87      0.486274   9 H  s                90      0.487933  10 H  s         
    30      0.435565   2 C  pz               13      0.361786   1 C  px        
 
 Vector   27  Occ=0.000000D+00  E=-1.306864D-01
              MO Center=  7.8D-02, -1.1D-01,  2.5D-01, r^2= 7.3D+00
   Bfn.  Coefficient  Atom+Function         Bfn.  Coefficient  Atom+Function  
  ----- ------------  ---------------      ----- ------------  ---------------
    39      1.110839   4 C  s                57      1.114844   6 C  s         
    69     -0.943405   7 H  s                93     -0.943110  11 H  s         
    33      0.798754   3 H  s                51      0.798789   5 H  s         
     6     -0.721822   1 C  s                21     -0.715756   2 C  s         
    66      0.325682   6 C  pz              111     -0.308241  13 H  s         
 
 Vector   28  Occ=0.000000D+00  E=-1.136968D-01
              MO Center= -4.9D-02,  7.2D-02, -1.7D-01, r^2= 1.2D+01
   Bfn.  Coefficient  Atom+Function         Bfn.  Coefficient  Atom+Function  
  ----- ------------  ---------------      ----- ------------  ---------------
    75      1.419091   8 C  s                99     -1.422832  12 C  s         
    87     -0.770826   9 H  s                90      0.768619  10 H  s         
    51      0.744964   5 H  s                33     -0.737777   3 H  s         
    21     -0.639526   2 C  s                 6      0.633965   1 C  s         
   114     -0.634151  14 H  s               120      0.636309  16 H  s         
 
 Vector   29  Occ=0.000000D+00  E=-9.433672D-02
              MO Center=  4.6D-02, -8.8D-02,  1.8D-01, r^2= 9.9D+00
   Bfn.  Coefficient  Atom+Function         Bfn.  Coefficient  Atom+Function  
  ----- ------------  ---------------      ----- ------------  ---------------
    39      1.349572   4 C  s                57     -1.345797   6 C  s         
    75     -1.251294   8 C  s                99      1.252630  12 C  s         
    90      1.019221  10 H  s                87     -1.008623   9 H  s         
   111      0.895044  13 H  s               126     -0.884877  18 H  s         
    33     -0.438091   3 H  s                51      0.426464   5 H  s         
 
 Vector   30  Occ=0.000000D+00  E=-7.633038D-02
              MO Center= -1.8D-01,  2.5D-01, -6.5D-01, r^2= 9.8D+00
   Bfn.  Coefficient  Atom+Function         Bfn.  Coefficient  Atom+Function  
  ----- ------------  ---------------      ----- ------------  ---------------
     6      1.609668   1 C  s                21     -1.597448   2 C  s         
    51      1.491950   5 H  s                33     -1.471269   3 H  s         
    30      0.837333   2 C  pz               90     -0.831112  10 H  s         
    87      0.761750   9 H  s                57      0.652193   6 C  s         
    15     -0.647874   1 C  pz               39     -0.613047   4 C  s         
 
 Vector   31  Occ=0.000000D+00  E=-7.488855D-02
              MO Center= -2.1D-02,  4.0D-02, -1.0D-02, r^2= 1.3D+01
   Bfn.  Coefficient  Atom+Function         Bfn.  Coefficient  Atom+Function  
  ----- ------------  ---------------      ----- ------------  ---------------
    75      1.629247   8 C  s                99      1.634253  12 C  s         
    87      1.032683   9 H  s                90      0.994767  10 H  s         
   114     -0.958431  14 H  s               120     -0.924388  16 H  s         
    39     -0.778067   4 C  s                57     -0.728409   6 C  s         
    47     -0.698906   4 C  py               65      0.666244   6 C  py        
 
 Vector   32  Occ=0.000000D+00  E=-7.107382D-02
              MO Center=  3.2D-02, -4.0D-02,  1.3D-01, r^2= 1.0D+01
   Bfn.  Coefficient  Atom+Function         Bfn.  Coefficient  Atom+Function  
  ----- ------------  ---------------      ----- ------------  ---------------
    87      1.241825   9 H  s                90      1.231648  10 H  s         
    69     -1.139360   7 H  s                93     -1.138229  11 H  s         
    47     -1.107940   4 C  py               66      1.085807   6 C  pz        
     6      1.072447   1 C  s                21      1.061283   2 C  s         
    51     -0.763183   5 H  s                33     -0.758037   3 H  s         
 
 Vector   33  Occ=0.000000D+00  E=-5.856605D-02
              MO Center=  1.8D-02, -4.0D-03,  9.6D-02, r^2= 1.0D+01
   Bfn.  Coefficient  Atom+Function         Bfn.  Coefficient  Atom+Function  
  ----- ------------  ---------------      ----- ------------  ---------------
   126      1.322654  18 H  s               111      1.250136  13 H  s         
    57      0.782427   6 C  s               117      0.780628  15 H  s         
    46      0.702344   4 C  px               39      0.678691   4 C  s         
   108     -0.657419  12 C  pz               64     -0.651317   6 C  px        
   123      0.637220  17 H  s                83      0.632082   8 C  py        
 
 Vector   34  Occ=0.000000D+00  E=-5.785141D-02
              MO Center=  2.4D-01, -3.6D-01,  7.3D-01, r^2= 1.0D+01
   Bfn.  Coefficient  Atom+Function         Bfn.  Coefficient  Atom+Function  
  ----- ------------  ---------------      ----- ------------  ---------------
    47      1.370195   4 C  py              123     -1.367675  17 H  s         
    65      1.331927   6 C  py              117      1.287027  15 H  s         
    90      1.181862  10 H  s                87     -1.169635   9 H  s         
   107     -1.001381  12 C  py               39     -0.949808   4 C  s         
    84     -0.897798   8 C  pz               57      0.884334   6 C  s         
 
 Vector   35  Occ=0.000000D+00  E=-4.349720D-02
              MO Center=  1.1D-01, -1.6D-01,  3.5D-01, r^2= 1.1D+01
   Bfn.  Coefficient  Atom+Function         Bfn.  Coefficient  Atom+Function  
  ----- ------------  ---------------      ----- ------------  ---------------
    39     -1.354383   4 C  s                57     -1.349662   6 C  s         
    21      1.254314   2 C  s                 6      1.245824   1 C  s         
    75      0.960842   8 C  s                99      0.959204  12 C  s         
    46      0.794425   4 C  px              126      0.796557  18 H  s         
   111      0.786609  13 H  s               117     -0.770564  15 H  s         
 
 Vector   36  Occ=0.000000D+00  E=-3.703418D-02
              MO Center=  1.8D-01, -2.7D-01,  6.0D-01, r^2= 1.2D+01
   Bfn.  Coefficient  Atom+Function         Bfn.  Coefficient  Atom+Function  
  ----- ------------  ---------------      ----- ------------  ---------------
   123      1.512661  17 H  s               117      1.504807  15 H  s         
    84     -1.339289   8 C  pz               65     -1.317745   6 C  py        
   107      1.220323  12 C  py               48      1.093661   4 C  pz        
    39     -0.891657   4 C  s                57     -0.887217   6 C  s         
     6      0.856571   1 C  s                21      0.857286   2 C  s         
 
 Vector   37  Occ=0.000000D+00  E=-2.922032D-02
              MO Center= -1.5D-03, -1.2D-02,  1.9D-02, r^2= 1.0D+01
   Bfn.  Coefficient  Atom+Function         Bfn.  Coefficient  Atom+Function  
  ----- ------------  ---------------      ----- ------------  ---------------
   111     -1.102149  13 H  s               126      1.090800  18 H  s         
    39      1.066554   4 C  s                57     -1.069214   6 C  s         
   106     -1.002279  12 C  px               46     -0.949124   4 C  px        
    33     -0.849136   3 H  s                51      0.845786   5 H  s         
    75     -0.818194   8 C  s                99      0.813159  12 C  s         
 
 Vector   38  Occ=0.000000D+00  E=-2.750475D-02
              MO Center= -1.1D-01,  1.2D-01, -2.4D-01, r^2= 1.3D+01
   Bfn.  Coefficient  Atom+Function         Bfn.  Coefficient  Atom+Function  
  ----- ------------  ---------------      ----- ------------  ---------------
   114      1.630451  14 H  s               120     -1.602935  16 H  s         
    21     -0.998925   2 C  s                 6      0.978678   1 C  s         
   108     -0.937968  12 C  pz               39     -0.809275   4 C  s         
    57      0.812525   6 C  s               117     -0.776892  15 H  s         
   123      0.759884  17 H  s                82      0.697464   8 C  px        
 
 Vector   39  Occ=0.000000D+00  E=-1.341511D-02
              MO Center=  2.0D-01, -2.6D-01,  5.7D-01, r^2= 9.7D+00
   Bfn.  Coefficient  Atom+Function         Bfn.  Coefficient  Atom+Function  
  ----- ------------  ---------------      ----- ------------  ---------------
    69      1.795001   7 H  s                93     -1.799761  11 H  s         
    39     -1.445671   4 C  s                57      1.422450   6 C  s         
     6     -1.145882   1 C  s                21      1.092036   2 C  s         
    66      0.995346   6 C  pz              123      0.908922  17 H  s         
   117     -0.903147  15 H  s                47      0.670137   4 C  py        
 
 Vector   40  Occ=0.000000D+00  E=-1.304048D-02
              MO Center= -3.0D-02,  4.7D-02, -1.3D-01, r^2= 1.1D+01
   Bfn.  Coefficient  Atom+Function         Bfn.  Coefficient  Atom+Function  
  ----- ------------  ---------------      ----- ------------  ---------------
   120     -1.534928  16 H  s               114     -1.526303  14 H  s         
    64      1.453360   6 C  px               82     -1.195981   8 C  px        
    46     -1.151743   4 C  px              108     -1.134517  12 C  pz        
   106      0.869647  12 C  px               99     -0.822755  12 C  s         
    48      0.796706   4 C  pz               75     -0.785071   8 C  s         
 
 Vector   41  Occ=0.000000D+00  E= 2.049275D-02
              MO Center=  1.3D-01, -2.0D-01,  4.8D-01, r^2= 1.1D+01
   Bfn.  Coefficient  Atom+Function         Bfn.  Coefficient  Atom+Function  
  ----- ------------  ---------------      ----- ------------  ---------------
    82      0.768302   8 C  px              126      0.668053  18 H  s         
   111     -0.657807  13 H  s               106      0.613949  12 C  px        
   108     -0.561965  12 C  pz               64     -0.504675   6 C  px        
    46     -0.481290   4 C  px                6     -0.465111   1 C  s         
    21      0.459599   2 C  s                47     -0.416774   4 C  py        
 
 Vector   42  Occ=0.000000D+00  E= 2.984947D-02
              MO Center= -1.6D-02,  4.3D-02, -1.3D-01, r^2= 1.0D+01
   Bfn.  Coefficient  Atom+Function         Bfn.  Coefficient  Atom+Function  
  ----- ------------  ---------------      ----- ------------  ---------------
   107      1.075287  12 C  py               83     -0.950837   8 C  py        
    65     -0.708601   6 C  py              111     -0.647507  13 H  s         
   126     -0.648906  18 H  s                48      0.642488   4 C  pz        
    82     -0.597491   8 C  px               28     -0.546469   2 C  px        
   106      0.541840  12 C  px               21      0.487366   2 C  s         
 
 Vector   43  Occ=0.000000D+00  E= 3.725967D-02
              MO Center=  5.1D-02, -8.7D-02,  2.3D-01, r^2= 9.5D+00
   Bfn.  Coefficient  Atom+Function         Bfn.  Coefficient  Atom+Function  
  ----- ------------  ---------------      ----- ------------  ---------------
    30      2.566824   2 C  pz               33     -2.103778   3 H  s         
    48     -2.105857   4 C  pz               51      2.107967   5 H  s         
    15     -2.091828   1 C  pz                6     -2.023432   1 C  s         
    21      2.013054   2 C  s                64      1.817262   6 C  px        
    65     -1.560343   6 C  py               14      1.408438   1 C  py        
 
 Vector   44  Occ=0.000000D+00  E= 5.693252D-02
              MO Center= -1.3D-01,  1.8D-01, -3.9D-01, r^2= 7.2D+00
   Bfn.  Coefficient  Atom+Function         Bfn.  Coefficient  Atom+Function  
  ----- ------------  ---------------      ----- ------------  ---------------
    21     -1.760706   2 C  s                30     -1.760194   2 C  pz        
     6      1.751062   1 C  s                33      1.533796   3 H  s         
    51     -1.535882   5 H  s                13      1.437251   1 C  px        
    15      0.890688   1 C  pz               14     -0.862865   1 C  py        
    48      0.754842   4 C  pz               64     -0.680765   6 C  px        
 
 Vector   45  Occ=0.000000D+00  E= 5.854402D-02
              MO Center= -5.8D-02,  8.4D-02, -1.7D-01, r^2= 9.6D+00
   Bfn.  Coefficient  Atom+Function         Bfn.  Coefficient  Atom+Function  
  ----- ------------  ---------------      ----- ------------  ---------------
    29      0.945742   2 C  py              107     -0.778298  12 C  py        
    15     -0.769546   1 C  pz               83      0.668692   8 C  py        
    14     -0.607226   1 C  py              117     -0.498762  15 H  s         
   123     -0.490450  17 H  s                48      0.468919   4 C  pz        
     6     -0.463784   1 C  s                21     -0.453802   2 C  s         
 
 Vector   46  Occ=0.000000D+00  E= 6.684004D-02
              MO Center=  8.9D-02, -1.2D-01,  2.3D-01, r^2= 1.3D+01
   Bfn.  Coefficient  Atom+Function         Bfn.  Coefficient  Atom+Function  
  ----- ------------  ---------------      ----- ------------  ---------------
    30      1.537808   2 C  pz               83     -1.371345   8 C  py        
    14      1.224147   1 C  py              107     -1.188623  12 C  py        
    13     -0.880097   1 C  px               33     -0.814595   3 H  s         
    51      0.804614   5 H  s               108     -0.739846  12 C  pz        
     6     -0.622761   1 C  s                21      0.621697   2 C  s         
 
 Vector   47  Occ=0.000000D+00  E= 7.870970D-02
              MO Center=  2.2D-01, -3.0D-01,  6.8D-01, r^2= 1.1D+01
   Bfn.  Coefficient  Atom+Function         Bfn.  Coefficient  Atom+Function  
  ----- ------------  ---------------      ----- ------------  ---------------
   108      1.554186  12 C  pz               84      0.966134   8 C  pz        
    83     -0.886536   8 C  py               82      0.850390   8 C  px        
    66     -0.685087   6 C  pz               48     -0.572191   4 C  pz        
   120      0.530378  16 H  s               114      0.526228  14 H  s         
   113      0.465738  14 H  s               119      0.466909  16 H  s         
 
 Vector   48  Occ=0.000000D+00  E= 8.983456D-02
              MO Center= -1.1D-01,  1.8D-01, -3.6D-01, r^2= 7.9D+00
   Bfn.  Coefficient  Atom+Function         Bfn.  Coefficient  Atom+Function  
  ----- ------------  ---------------      ----- ------------  ---------------
    13      1.371506   1 C  px               46     -1.365698   4 C  px        
    28     -1.315270   2 C  px               64      1.023815   6 C  px        
    66     -0.984046   6 C  pz               84     -0.698903   8 C  pz        
   106     -0.623081  12 C  px               39     -0.589833   4 C  s         
    57     -0.585772   6 C  s                32     -0.538564   3 H  s         
 
 Vector   49  Occ=0.000000D+00  E= 9.943988D-02
              MO Center= -7.3D-02,  1.0D-01, -2.8D-01, r^2= 8.4D+00
   Bfn.  Coefficient  Atom+Function         Bfn.  Coefficient  Atom+Function  
  ----- ------------  ---------------      ----- ------------  ---------------
    29      2.892276   2 C  py               14      2.630259   1 C  py        
    69     -1.969522   7 H  s                15      1.948972   1 C  pz        
    93      1.955591  11 H  s                 6     -1.868739   1 C  s         
    21      1.863838   2 C  s                66     -1.754039   6 C  pz        
    48      1.704859   4 C  pz               28     -1.607204   2 C  px        
 
 Vector   50  Occ=0.000000D+00  E= 1.082376D-01
              MO Center= -1.5D-02,  1.7D-02, -3.4D-02, r^2= 8.5D+00
   Bfn.  Coefficient  Atom+Function         Bfn.  Coefficient  Atom+Function  
  ----- ------------  ---------------      ----- ------------  ---------------
    65      1.427155   6 C  py               48     -1.073378   4 C  pz        
    47     -0.972802   4 C  py               15     -0.888996   1 C  pz        
    39      0.857782   4 C  s                57      0.831577   6 C  s         
    28     -0.793064   2 C  px               51     -0.785657   5 H  s         
    33     -0.773168   3 H  s                21     -0.588059   2 C  s         
 
 Vector   51  Occ=0.000000D+00  E= 1.530657D-01
              MO Center= -1.3D-02,  9.1D-02, -2.1D-01, r^2= 7.0D+00
   Bfn.  Coefficient  Atom+Function         Bfn.  Coefficient  Atom+Function  
  ----- ------------  ---------------      ----- ------------  ---------------
    14      1.083651   1 C  py               46      0.772747   4 C  px        
    29     -0.660504   2 C  py               64     -0.635038   6 C  px        
    30     -0.553374   2 C  pz               89     -0.511220  10 H  s         
    28     -0.499289   2 C  px               86     -0.482771   9 H  s         
    83      0.455588   8 C  py               99      0.451674  12 C  s         
 
 Vector   52  Occ=0.000000D+00  E= 1.557821D-01
              MO Center= -8.7D-02,  5.6D-02, -9.0D-02, r^2= 8.5D+00
   Bfn.  Coefficient  Atom+Function         Bfn.  Coefficient  Atom+Function  
  ----- ------------  ---------------      ----- ------------  ---------------
    66      2.220683   6 C  pz               47      1.918508   4 C  py        
    30     -1.439915   2 C  pz              108     -1.181916  12 C  pz        
    14     -1.058722   1 C  py               48     -1.060914   4 C  pz        
    84      1.049253   8 C  pz               15      1.023105   1 C  pz        
    51     -0.982397   5 H  s                93     -0.967705  11 H  s         
 
 Vector   53  Occ=0.000000D+00  E= 1.856587D-01
              MO Center=  6.7D-02, -2.8D-02, -4.1D-02, r^2= 9.3D+00
   Bfn.  Coefficient  Atom+Function         Bfn.  Coefficient  Atom+Function  
  ----- ------------  ---------------      ----- ------------  ---------------
    66      2.422921   6 C  pz               29     -1.947485   2 C  py        
    93     -1.802284  11 H  s               106     -1.473492  12 C  px        
    47     -1.367763   4 C  py               46      1.317729   4 C  px        
    48      1.160881   4 C  pz               69     -1.158620   7 H  s         
     6      1.150248   1 C  s                83      1.101542   8 C  py        
 
 Vector   54  Occ=0.000000D+00  E= 1.860950D-01
              MO Center= -3.4D-02, -1.9D-02,  1.5D-01, r^2= 7.5D+00
   Bfn.  Coefficient  Atom+Function         Bfn.  Coefficient  Atom+Function  
  ----- ------------  ---------------      ----- ------------  ---------------
    69     -2.119500   7 H  s                65      2.055828   6 C  py        
    48      1.994904   4 C  pz               21      1.939200   2 C  s         
    14      1.740562   1 C  py                6     -1.657360   1 C  s         
    93      1.639735  11 H  s                28     -1.428718   2 C  px        
    51      1.336671   5 H  s                13     -1.324132   1 C  px        
 
 Vector   55  Occ=0.000000D+00  E= 2.054841D-01
              MO Center= -2.8D-02,  4.2D-02, -1.2D-01, r^2= 9.9D+00
   Bfn.  Coefficient  Atom+Function         Bfn.  Coefficient  Atom+Function  
  ----- ------------  ---------------      ----- ------------  ---------------
    21     -4.546782   2 C  s                 6      4.507503   1 C  s         
    14     -3.974402   1 C  py               47      3.917936   4 C  py        
    66      3.932295   6 C  pz               13      3.464310   1 C  px        
    29     -3.275558   2 C  py               30     -3.270718   2 C  pz        
    28      3.108492   2 C  px               69      2.422773   7 H  s         
 
 Vector   56  Occ=0.000000D+00  E= 2.120514D-01
              MO Center= -8.1D-02,  1.0D-01, -1.8D-01, r^2= 9.4D+00
   Bfn.  Coefficient  Atom+Function         Bfn.  Coefficient  Atom+Function  
  ----- ------------  ---------------      ----- ------------  ---------------
    64      2.295733   6 C  px               46     -1.928813   4 C  px        
    84     -1.846464   8 C  pz              108     -1.806939  12 C  pz        
    28     -1.746316   2 C  px               13      1.729412   1 C  px        
    14      1.575422   1 C  py               29     -1.483194   2 C  py        
    82     -1.300276   8 C  px              107      1.288080  12 C  py        
 
 Vector   57  Occ=0.000000D+00  E= 2.236683D-01
              MO Center=  8.7D-02, -1.2D-01,  2.2D-01, r^2= 1.0D+01
   Bfn.  Coefficient  Atom+Function         Bfn.  Coefficient  Atom+Function  
  ----- ------------  ---------------      ----- ------------  ---------------
    64      2.621325   6 C  px               46      2.546095   4 C  px        
    82      2.008895   8 C  px              106      1.841782  12 C  px        
    15     -1.533944   1 C  pz               99     -1.292679  12 C  s         
    75      1.261722   8 C  s                30      1.247698   2 C  pz        
    48     -1.244020   4 C  pz               66     -1.197726   6 C  pz        
 
 Vector   58  Occ=0.000000D+00  E= 2.384552D-01
              MO Center= -2.2D-01,  3.3D-01, -7.4D-01, r^2= 8.8D+00
   Bfn.  Coefficient  Atom+Function         Bfn.  Coefficient  Atom+Function  
  ----- ------------  ---------------      ----- ------------  ---------------
    33      3.234437   3 H  s                51      3.213052   5 H  s         
    30      3.008286   2 C  pz               64      2.181688   6 C  px        
    15      2.021626   1 C  pz               13      1.916603   1 C  px        
    46     -1.715927   4 C  px               48      1.645469   4 C  pz        
    14     -1.478700   1 C  py              111     -1.475536  13 H  s         
 
 Vector   59  Occ=0.000000D+00  E= 2.456026D-01
              MO Center= -1.5D-01,  2.3D-01, -5.2D-01, r^2= 1.1D+01
   Bfn.  Coefficient  Atom+Function         Bfn.  Coefficient  Atom+Function  
  ----- ------------  ---------------      ----- ------------  ---------------
    30      4.719939   2 C  pz               51      3.589474   5 H  s         
    33     -3.557123   3 H  s                14      3.367185   1 C  py        
    13     -2.622171   1 C  px               15     -2.042042   1 C  pz        
     6     -1.810026   1 C  s                21      1.793444   2 C  s         
    83      1.669690   8 C  py              126     -1.426904  18 H  s         
 
 Vector   60  Occ=0.000000D+00  E= 2.540901D-01
              MO Center=  1.9D-01, -2.8D-01,  6.3D-01, r^2= 7.6D+00
   Bfn.  Coefficient  Atom+Function         Bfn.  Coefficient  Atom+Function  
  ----- ------------  ---------------      ----- ------------  ---------------
    47      3.725102   4 C  py               66     -3.000291   6 C  pz        
    90     -2.670088  10 H  s                87     -2.647568   9 H  s         
    93      2.597562  11 H  s                69      2.564915   7 H  s         
    65     -2.403565   6 C  py               30      2.215516   2 C  pz        
    14     -1.838209   1 C  py               33      1.285771   3 H  s         
 
 Vector   61  Occ=0.000000D+00  E= 2.623716D-01
              MO Center=  5.3D-03, -8.7D-03, -9.4D-03, r^2= 1.3D+01
   Bfn.  Coefficient  Atom+Function         Bfn.  Coefficient  Atom+Function  
  ----- ------------  ---------------      ----- ------------  ---------------
    15      7.627188   1 C  pz               29      4.898412   2 C  py        
    30     -4.371166   2 C  pz               28     -3.907295   2 C  px        
    33      3.059215   3 H  s                51     -3.057398   5 H  s         
    39     -3.023112   4 C  s                57      3.020345   6 C  s         
    48      2.721338   4 C  pz              123      2.325100  17 H  s         
 
 Vector   62  Occ=0.000000D+00  E= 2.780841D-01
              MO Center=  6.5D-02, -9.8D-02,  2.3D-01, r^2= 1.2D+01
   Bfn.  Coefficient  Atom+Function         Bfn.  Coefficient  Atom+Function  
  ----- ------------  ---------------      ----- ------------  ---------------
   111      2.174692  13 H  s               126      2.172407  18 H  s         
   107     -1.943544  12 C  py               83      1.631736   8 C  py        
   117     -1.619486  15 H  s               123     -1.602016  17 H  s         
    84      1.146437   8 C  pz               87     -1.140372   9 H  s         
    90     -1.131151  10 H  s                46      1.002938   4 C  px        
 
 Vector   63  Occ=0.000000D+00  E= 2.948483D-01
              MO Center= -2.3D-01,  2.3D-01, -4.5D-01, r^2= 1.2D+01
   Bfn.  Coefficient  Atom+Function         Bfn.  Coefficient  Atom+Function  
  ----- ------------  ---------------      ----- ------------  ---------------
    33     -2.477359   3 H  s                51      2.436660   5 H  s         
    14      2.320247   1 C  py               13     -2.081490   1 C  px        
    30      2.010891   2 C  pz               29      1.879233   2 C  py        
   114      1.835473  14 H  s                28     -1.805774   2 C  px        
   120     -1.714754  16 H  s               117     -1.439671  15 H  s         
 
 Vector   64  Occ=0.000000D+00  E= 2.977083D-01
              MO Center=  8.8D-02, -1.4D-02, -9.1D-02, r^2= 1.4D+01
   Bfn.  Coefficient  Atom+Function         Bfn.  Coefficient  Atom+Function  
  ----- ------------  ---------------      ----- ------------  ---------------
   120      2.392544  16 H  s               114      2.323420  14 H  s         
   108      1.668298  12 C  pz              123     -1.183093  17 H  s         
   117     -1.148609  15 H  s                83     -1.136348   8 C  py        
   126     -0.938884  18 H  s                47      0.875776   4 C  py        
    84      0.864933   8 C  pz              111     -0.823366  13 H  s         
 
 Vector   65  Occ=0.000000D+00  E= 3.015601D-01
              MO Center=  2.3D-01, -2.4D-01,  4.1D-01, r^2= 1.1D+01
   Bfn.  Coefficient  Atom+Function         Bfn.  Coefficient  Atom+Function  
  ----- ------------  ---------------      ----- ------------  ---------------
    21      1.968444   2 C  s                90      1.966504  10 H  s         
    47     -1.940477   4 C  py               87      1.913671   9 H  s         
    39     -1.833918   4 C  s                 6      1.786282   1 C  s         
    57     -1.696891   6 C  s               123     -1.689197  17 H  s         
   117     -1.659485  15 H  s                64      1.609142   6 C  px        
 
 Vector   66  Occ=0.000000D+00  E= 3.037935D-01
              MO Center= -4.2D-02, -3.6D-02,  2.4D-01, r^2= 1.1D+01
   Bfn.  Coefficient  Atom+Function         Bfn.  Coefficient  Atom+Function  
  ----- ------------  ---------------      ----- ------------  ---------------
    15      5.011325   1 C  pz               30     -3.362912   2 C  pz        
    29      3.160030   2 C  py                6     -2.317224   1 C  s         
    28     -2.230167   2 C  px               21      2.175180   2 C  s         
    51     -2.047622   5 H  s                33      2.019365   3 H  s         
   111     -1.894683  13 H  s               126      1.800457  18 H  s         
 
 Vector   67  Occ=0.000000D+00  E= 3.141778D-01
              MO Center=  2.2D-02, -3.1D-02,  8.2D-02, r^2= 6.8D+00
   Bfn.  Coefficient  Atom+Function         Bfn.  Coefficient  Atom+Function  
  ----- ------------  ---------------      ----- ------------  ---------------
    15      4.263691   1 C  pz               39     -3.049860   4 C  s         
    57      3.039149   6 C  s                29      2.712283   2 C  py        
    30     -2.708232   2 C  pz               28     -1.896265   2 C  px        
    33      1.574716   3 H  s                51     -1.577559   5 H  s         
    64     -1.384543   6 C  px               69      1.268324   7 H  s         
 
 Vector   68  Occ=0.000000D+00  E= 3.286111D-01
              MO Center=  1.3D-01, -2.0D-01,  4.6D-01, r^2= 7.0D+00
   Bfn.  Coefficient  Atom+Function         Bfn.  Coefficient  Atom+Function  
  ----- ------------  ---------------      ----- ------------  ---------------
    39      1.767061   4 C  s                57      1.736816   6 C  s         
     6      1.699323   1 C  s                21      1.705825   2 C  s         
    65     -1.487881   6 C  py                5     -1.319448   1 C  s         
    20     -1.316110   2 C  s                48      1.102673   4 C  pz        
    87     -1.098503   9 H  s                90     -1.087255  10 H  s         
 
 Vector   69  Occ=0.000000D+00  E= 3.348112D-01
              MO Center=  7.3D-02, -1.3D-01,  3.2D-01, r^2= 1.4D+01
   Bfn.  Coefficient  Atom+Function         Bfn.  Coefficient  Atom+Function  
  ----- ------------  ---------------      ----- ------------  ---------------
    75      1.894066   8 C  s                99     -1.876708  12 C  s         
    30     -1.647046   2 C  pz              117     -1.472320  15 H  s         
   123      1.456815  17 H  s                74     -1.403459   8 C  s         
    98      1.392502  12 C  s               114     -1.275727  14 H  s         
   120      1.277695  16 H  s                57      1.243145   6 C  s         
 
 Vector   70  Occ=0.000000D+00  E= 3.447102D-01
              MO Center=  1.1D-01, -1.3D-01,  2.5D-01, r^2= 1.4D+01
   Bfn.  Coefficient  Atom+Function         Bfn.  Coefficient  Atom+Function  
  ----- ------------  ---------------      ----- ------------  ---------------
    99      2.509421  12 C  s                75      2.480328   8 C  s         
    98     -1.566344  12 C  s                74     -1.549899   8 C  s         
   123     -1.406909  17 H  s               117     -1.390912  15 H  s         
   120     -1.179025  16 H  s               106      1.161447  12 C  px        
   114     -1.155820  14 H  s                47      1.119065   4 C  py        
 
 Vector   71  Occ=0.000000D+00  E= 3.655362D-01
              MO Center=  4.6D-02, -1.8D-01,  7.2D-01, r^2= 7.8D+00
   Bfn.  Coefficient  Atom+Function         Bfn.  Coefficient  Atom+Function  
  ----- ------------  ---------------      ----- ------------  ---------------
    69      4.779740   7 H  s                93     -4.429369  11 H  s         
    48     -3.234070   4 C  pz               14     -2.514066   1 C  py        
    13      2.462509   1 C  px               66      2.389889   6 C  pz        
    29     -2.156754   2 C  py               65     -2.000321   6 C  py        
    28      1.975696   2 C  px               15     -1.882529   1 C  pz        
 
 Vector   72  Occ=0.000000D+00  E= 3.681396D-01
              MO Center=  1.7D-02,  8.0D-02, -4.7D-01, r^2= 9.6D+00
   Bfn.  Coefficient  Atom+Function         Bfn.  Coefficient  Atom+Function  
  ----- ------------  ---------------      ----- ------------  ---------------
    21      4.539242   2 C  s                 6      4.422971   1 C  s         
    66      3.719648   6 C  pz               30     -2.884244   2 C  pz        
    47     -2.810626   4 C  py               13     -2.490518   1 C  px        
    14      2.398167   1 C  py               28      2.391986   2 C  px        
    99      2.179924  12 C  s                93     -2.133741  11 H  s         
 
 Vector   73  Occ=0.000000D+00  E= 4.200946D-01
              MO Center= -1.3D-01,  1.9D-01, -4.4D-01, r^2= 7.7D+00
   Bfn.  Coefficient  Atom+Function         Bfn.  Coefficient  Atom+Function  
  ----- ------------  ---------------      ----- ------------  ---------------
    15     -6.932444   1 C  pz                6      6.399302   1 C  s         
    21     -6.377087   2 C  s                29     -5.517980   2 C  py        
    28      4.171640   2 C  px               75      3.790161   8 C  s         
    99     -3.779316  12 C  s                30      2.180664   2 C  pz        
    48     -2.124245   4 C  pz               93     -2.123769  11 H  s         
 
 Vector   74  Occ=0.000000D+00  E= 4.718413D-01
              MO Center= -1.0D-01,  1.5D-01, -3.4D-01, r^2= 7.7D+00
   Bfn.  Coefficient  Atom+Function         Bfn.  Coefficient  Atom+Function  
  ----- ------------  ---------------      ----- ------------  ---------------
    30      7.867099   2 C  pz               15     -5.415066   1 C  pz        
    14      4.599903   1 C  py               33     -4.046721   3 H  s         
    51      4.061715   5 H  s                13     -3.538023   1 C  px        
    39      3.326377   4 C  s                57     -3.305611   6 C  s         
     6     -3.225897   1 C  s                21      3.204352   2 C  s         
 
 Vector   75  Occ=0.000000D+00  E= 5.051587D-01
              MO Center= -1.4D-02,  2.4D-02, -5.3D-02, r^2= 8.2D+00
   Bfn.  Coefficient  Atom+Function         Bfn.  Coefficient  Atom+Function  
  ----- ------------  ---------------      ----- ------------  ---------------
    39      4.613483   4 C  s                57      4.603050   6 C  s         
    21     -4.129809   2 C  s                 6     -4.092962   1 C  s         
    75      2.565488   8 C  s                99      2.576429  12 C  s         
    15     -1.993379   1 C  pz               28     -1.569170   2 C  px        
    48     -1.538867   4 C  pz               38     -1.435131   4 C  s         
 
 Vector   76  Occ=0.000000D+00  E= 5.509436D-01
              MO Center=  7.0D-02, -9.6D-02,  2.0D-01, r^2= 9.5D+00
   Bfn.  Coefficient  Atom+Function         Bfn.  Coefficient  Atom+Function  
  ----- ------------  ---------------      ----- ------------  ---------------
    57      7.902108   6 C  s                39      7.830876   4 C  s         
    99     -6.733839  12 C  s                75     -6.692368   8 C  s         
    56     -1.747688   6 C  s                38     -1.736988   4 C  s         
    30     -1.601887   2 C  pz               65      1.504253   6 C  py        
    46     -1.490904   4 C  px              106      1.473808  12 C  px        
 
 Vector   77  Occ=0.000000D+00  E= 5.869620D-01
              MO Center= -5.6D-02,  8.3D-02, -1.8D-01, r^2= 7.7D+00
   Bfn.  Coefficient  Atom+Function         Bfn.  Coefficient  Atom+Function  
  ----- ------------  ---------------      ----- ------------  ---------------
     6     12.571254   1 C  s                21    -12.561453   2 C  s         
    30     -8.987235   2 C  pz               39     -6.159478   4 C  s         
    57      6.158299   6 C  s                15      5.869082   1 C  pz        
    14     -5.580418   1 C  py               33      4.118917   3 H  s         
    51     -4.121035   5 H  s                13      4.022512   1 C  px        
 
 Vector   78  Occ=0.000000D+00  E= 6.172359D-01
              MO Center=  2.4D-02, -4.0D-02,  1.0D-01, r^2= 8.4D+00
   Bfn.  Coefficient  Atom+Function         Bfn.  Coefficient  Atom+Function  
  ----- ------------  ---------------      ----- ------------  ---------------
    39     12.178748   4 C  s                57    -12.159282   6 C  s         
    15     -8.138970   1 C  pz               29     -6.347231   2 C  py        
    28      4.882697   2 C  px               75     -4.176272   8 C  s         
    99      4.139526  12 C  s                48     -2.904977   4 C  pz        
    30      2.724474   2 C  pz               38     -2.603774   4 C  s         
 
 Vector   79  Occ=0.000000D+00  E= 1.136925D+00
              MO Center= -2.1D-01,  3.2D-01, -7.2D-01, r^2= 2.6D+00
   Bfn.  Coefficient  Atom+Function         Bfn.  Coefficient  Atom+Function  
  ----- ------------  ---------------      ----- ------------  ---------------
    25      0.930214   2 C  px               10      0.904316   1 C  px        
     7     -0.695707   1 C  px               22     -0.690795   2 C  px        
    11      0.655901   1 C  py               28     -0.635499   2 C  px        
    26      0.609384   2 C  py                8     -0.528668   1 C  py        
    23     -0.529992   2 C  py               13     -0.478311   1 C  px        
 
 Vector   80  Occ=0.000000D+00  E= 1.149538D+00
              MO Center= -1.1D-01,  1.7D-01, -3.8D-01, r^2= 4.0D+00
   Bfn.  Coefficient  Atom+Function         Bfn.  Coefficient  Atom+Function  
  ----- ------------  ---------------      ----- ------------  ---------------
    45      1.340545   4 C  pz               12      1.282864   1 C  pz        
    48     -1.119442   4 C  pz               15     -1.058440   1 C  pz        
    62     -0.971660   6 C  py               26     -0.924654   2 C  py        
    65      0.925247   6 C  py               61      0.823308   6 C  px        
    25      0.755571   2 C  px               29      0.745663   2 C  py        
 
 Vector   81  Occ=0.000000D+00  E= 1.191911D+00
              MO Center= -6.5D-02,  7.7D-02, -1.3D-01, r^2= 4.8D+00
   Bfn.  Coefficient  Atom+Function         Bfn.  Coefficient  Atom+Function  
  ----- ------------  ---------------      ----- ------------  ---------------
    39      1.067401   4 C  s                43     -1.062048   4 C  px        
    57      1.039085   6 C  s                61      0.957265   6 C  px        
    99     -0.934218  12 C  s                75     -0.915378   8 C  s         
    79     -0.916321   8 C  px               10     -0.824030   1 C  px        
    13      0.738887   1 C  px              103      0.707937  12 C  px        
 
 Vector   82  Occ=0.000000D+00  E= 1.194753D+00
              MO Center= -1.4D-01,  2.4D-01, -6.0D-01, r^2= 3.2D+00
   Bfn.  Coefficient  Atom+Function         Bfn.  Coefficient  Atom+Function  
  ----- ------------  ---------------      ----- ------------  ---------------
    29      1.859954   2 C  py               26     -1.639358   2 C  py        
    11     -1.593972   1 C  py               14      1.538392   1 C  py        
    15      1.511973   1 C  pz               28     -1.455432   2 C  px        
    25      1.265420   2 C  px               13     -1.169966   1 C  px        
    12     -1.158894   1 C  pz               10      1.137547   1 C  px        
 
 Vector   83  Occ=0.000000D+00  E= 1.212663D+00
              MO Center= -4.8D-02,  7.4D-02, -1.9D-01, r^2= 6.1D+00
   Bfn.  Coefficient  Atom+Function         Bfn.  Coefficient  Atom+Function  
  ----- ------------  ---------------      ----- ------------  ---------------
   103      1.230719  12 C  px               43     -0.963497   4 C  px        
    25     -0.944559   2 C  px               79     -0.919888   8 C  px        
    81      0.879474   8 C  pz               61      0.842672   6 C  px        
    75     -0.843840   8 C  s                99     -0.836810  12 C  s         
    39      0.817196   4 C  s                57      0.819916   6 C  s         
 
 Vector   84  Occ=0.000000D+00  E= 1.253022D+00
              MO Center=  1.1D-01, -1.5D-01,  3.2D-01, r^2= 6.6D+00
   Bfn.  Coefficient  Atom+Function         Bfn.  Coefficient  Atom+Function  
  ----- ------------  ---------------      ----- ------------  ---------------
    39      1.470200   4 C  s                57     -1.470790   6 C  s         
    61     -1.436453   6 C  px              103     -1.273030  12 C  px        
    43     -1.244132   4 C  px               64      1.102440   6 C  px        
    75     -1.060944   8 C  s                99      1.059704  12 C  s         
    79     -1.046236   8 C  px               29     -1.001852   2 C  py        
 
 Vector   85  Occ=0.000000D+00  E= 1.274060D+00
              MO Center=  1.7D-01, -2.0D-01,  3.1D-01, r^2= 8.3D+00
   Bfn.  Coefficient  Atom+Function         Bfn.  Coefficient  Atom+Function  
  ----- ------------  ---------------      ----- ------------  ---------------
    79      1.211064   8 C  px               93     -1.161261  11 H  s         
   105     -1.159201  12 C  pz               69      1.058682   7 H  s         
    66      0.965164   6 C  pz               80     -0.913935   8 C  py        
   120      0.912563  16 H  s                46     -0.879394   4 C  px        
    43      0.872811   4 C  px              114     -0.859111  14 H  s         
 
 Vector   86  Occ=0.000000D+00  E= 1.277214D+00
              MO Center= -7.4D-02,  2.7D-02,  1.3D-01, r^2= 6.2D+00
   Bfn.  Coefficient  Atom+Function         Bfn.  Coefficient  Atom+Function  
  ----- ------------  ---------------      ----- ------------  ---------------
    47      1.222658   4 C  py               44     -1.036075   4 C  py        
    87     -1.000468   9 H  s                90     -0.995773  10 H  s         
    66     -0.908548   6 C  pz               64     -0.899012   6 C  px        
    69      0.826646   7 H  s               103      0.798126  12 C  px        
    33     -0.780122   3 H  s                51     -0.776686   5 H  s         
 
 Vector   87  Occ=0.000000D+00  E= 1.307394D+00
              MO Center=  1.1D-01, -1.3D-01,  2.7D-01, r^2= 5.7D+00
   Bfn.  Coefficient  Atom+Function         Bfn.  Coefficient  Atom+Function  
  ----- ------------  ---------------      ----- ------------  ---------------
    30      2.851001   2 C  pz               21      2.546676   2 C  s         
     6     -2.532195   1 C  s                39      2.379685   4 C  s         
    57     -2.385752   6 C  s                14      2.250391   1 C  py        
    13     -1.913094   1 C  px               45     -1.775914   4 C  pz        
    69     -1.776227   7 H  s                93      1.767806  11 H  s         
 
 Vector   88  Occ=0.000000D+00  E= 1.321002D+00
              MO Center= -4.4D-02,  2.6D-02, -7.4D-03, r^2= 7.9D+00
   Bfn.  Coefficient  Atom+Function         Bfn.  Coefficient  Atom+Function  
  ----- ------------  ---------------      ----- ------------  ---------------
   104      1.402862  12 C  py              107     -1.230301  12 C  py        
    80     -1.116415   8 C  py              111      0.905482  13 H  s         
    84      0.900392   8 C  pz              126      0.888064  18 H  s         
    81     -0.857279   8 C  pz              117     -0.848805  15 H  s         
   123     -0.827889  17 H  s                83      0.815837   8 C  py        
 
 Vector   89  Occ=0.000000D+00  E= 1.326502D+00
              MO Center= -2.8D-03,  2.7D-02, -9.8D-02, r^2= 6.3D+00
   Bfn.  Coefficient  Atom+Function         Bfn.  Coefficient  Atom+Function  
  ----- ------------  ---------------      ----- ------------  ---------------
    30      1.666174   2 C  pz               51      1.399895   5 H  s         
    33      1.378337   3 H  s                13      1.119925   1 C  px        
   105      1.119092  12 C  pz               27     -0.992885   2 C  pz        
    15      0.921666   1 C  pz               46     -0.904097   4 C  px        
    82     -0.889422   8 C  px              108     -0.873727  12 C  pz        
 
 Vector   90  Occ=0.000000D+00  E= 1.387682D+00
              MO Center=  1.1D-01, -1.4D-01,  3.0D-01, r^2= 7.8D+00
   Bfn.  Coefficient  Atom+Function         Bfn.  Coefficient  Atom+Function  
  ----- ------------  ---------------      ----- ------------  ---------------
    15      1.709495   1 C  pz               48      1.400634   4 C  pz        
    29      1.222566   2 C  py              104      1.222499  12 C  py        
    65      1.155925   6 C  py               62     -1.088301   6 C  py        
    28     -0.935112   2 C  px               45     -0.931089   4 C  pz        
    79      0.915651   8 C  px              107     -0.908537  12 C  py        
 
 Vector   91  Occ=0.000000D+00  E= 1.424660D+00
              MO Center=  3.5D-02, -8.3D-02,  2.2D-01, r^2= 7.5D+00
[...]
     6     -1.903956   1 C  s                21     -1.888193   2 C  s         
 
 Vector  111  Occ=0.000000D+00  E= 2.521603D+00
              MO Center=  5.8D-02, -8.6D-02,  1.8D-01, r^2= 8.6D+00
   Bfn.  Coefficient  Atom+Function         Bfn.  Coefficient  Atom+Function  
  ----- ------------  ---------------      ----- ------------  ---------------
    74      3.171766   8 C  s                98     -3.176564  12 C  s         
    75     -3.132934   8 C  s                99      3.136232  12 C  s         
    73     -2.344131   8 C  s                97      2.347360  12 C  s         
    15      2.067609   1 C  pz               57      1.769126   6 C  s         
    39     -1.751091   4 C  s                29      1.674400   2 C  py        
 
 Vector  112  Occ=0.000000D+00  E= 2.530123D+00
              MO Center= -1.7D-01,  2.6D-01, -5.8D-01, r^2= 3.8D+00
   Bfn.  Coefficient  Atom+Function         Bfn.  Coefficient  Atom+Function  
  ----- ------------  ---------------      ----- ------------  ---------------
     6      8.057296   1 C  s                21     -8.047579   2 C  s         
     5     -4.479487   1 C  s                20      4.465906   2 C  s         
     4      2.722646   1 C  s                19     -2.712921   2 C  s         
    14     -2.553009   1 C  py               30     -2.433482   2 C  pz        
    13      1.974581   1 C  px               99      1.979980  12 C  s         
 
 Vector  113  Occ=0.000000D+00  E= 2.605113D+00
              MO Center=  1.1D-01, -1.6D-01,  3.5D-01, r^2= 7.9D+00
   Bfn.  Coefficient  Atom+Function         Bfn.  Coefficient  Atom+Function  
  ----- ------------  ---------------      ----- ------------  ---------------
    75      4.572863   8 C  s                99      4.586324  12 C  s         
    57     -4.133382   6 C  s                39     -4.081736   4 C  s         
    74     -2.989948   8 C  s                98     -2.998886  12 C  s         
    56      2.522363   6 C  s                38      2.495668   4 C  s         
    73      2.039644   8 C  s                97      2.046197  12 C  s         
 
 Vector  114  Occ=0.000000D+00  E= 2.670455D+00
              MO Center=  9.8D-02, -1.5D-01,  3.6D-01, r^2= 5.1D+00
   Bfn.  Coefficient  Atom+Function         Bfn.  Coefficient  Atom+Function  
  ----- ------------  ---------------      ----- ------------  ---------------
    39      8.153657   4 C  s                57     -8.123992   6 C  s         
    15     -4.826719   1 C  pz               38     -4.152332   4 C  s         
    56      4.135665   6 C  s                29     -3.071245   2 C  py        
    30      2.998407   2 C  pz               37      2.574632   4 C  s         
    55     -2.563319   6 C  s                75     -2.348956   8 C  s         
 
 Vector  115  Occ=0.000000D+00  E= 1.126716D+01
              MO Center= -2.2D-01,  3.2D-01, -7.3D-01, r^2= 1.0D+00
   Bfn.  Coefficient  Atom+Function         Bfn.  Coefficient  Atom+Function  
  ----- ------------  ---------------      ----- ------------  ---------------
     4     -2.339811   1 C  s                19     -2.341486   2 C  s         
     3      2.276414   1 C  s                18      2.278264   2 C  s         
     5      1.984138   1 C  s                20      1.985123   2 C  s         
     6     -1.284890   1 C  s                21     -1.283131   2 C  s         
     2     -1.195992   1 C  s                17     -1.196978   2 C  s         
 
 Vector  116  Occ=0.000000D+00  E= 1.150361D+01
              MO Center=  6.5D-02, -1.4D-01,  3.6D-01, r^2= 8.0D+00
   Bfn.  Coefficient  Atom+Function         Bfn.  Coefficient  Atom+Function  
  ----- ------------  ---------------      ----- ------------  ---------------
    73     -2.402378   8 C  s                97      2.363871  12 C  s         
    72      2.325100   8 C  s                96     -2.287185  12 C  s         
    74      2.104816   8 C  s                98     -2.072631  12 C  s         
    75     -1.511572   8 C  s                99      1.493789  12 C  s         
    71     -1.217269   8 C  s                95      1.197453  12 C  s         
 
 Vector  117  Occ=0.000000D+00  E= 1.150575D+01
              MO Center=  1.1D-01, -1.3D-01,  2.7D-01, r^2= 4.1D+00
   Bfn.  Coefficient  Atom+Function         Bfn.  Coefficient  Atom+Function  
  ----- ------------  ---------------      ----- ------------  ---------------
    37     -2.086241   4 C  s                55     -2.079271   6 C  s         
    36      2.008186   4 C  s                54      2.002208   6 C  s         
    38      1.853398   4 C  s                56      1.845903   6 C  s         
    39     -1.566275   4 C  s                57     -1.562533   6 C  s         
    97     -1.175452  12 C  s                96      1.164361  12 C  s         
 
 Vector  118  Occ=0.000000D+00  E= 1.152048D+01
              MO Center=  1.0D-01, -1.5D-01,  3.2D-01, r^2= 6.7D+00
   Bfn.  Coefficient  Atom+Function         Bfn.  Coefficient  Atom+Function  
  ----- ------------  ---------------      ----- ------------  ---------------
    73     -2.094018   8 C  s                97     -2.102064  12 C  s         
    72      2.000404   8 C  s                96      2.008193  12 C  s         
    74      1.900902   8 C  s                98      1.907923  12 C  s         
    75     -1.647776   8 C  s                99     -1.652635  12 C  s         
    37      1.242556   4 C  s                55      1.244960   6 C  s         
 
 Vector  119  Occ=0.000000D+00  E= 1.158168D+01
              MO Center=  8.6D-02, -1.3D-01,  2.9D-01, r^2= 3.0D+00
   Bfn.  Coefficient  Atom+Function         Bfn.  Coefficient  Atom+Function  
  ----- ------------  ---------------      ----- ------------  ---------------
    39      2.686784   4 C  s                57     -2.684843   6 C  s         
    37      2.526004   4 C  s                55     -2.524498   6 C  s         
    38     -2.429431   4 C  s                56      2.428112   6 C  s         
    36     -2.339924   4 C  s                54      2.338440   6 C  s         
    15     -1.227349   1 C  pz               35      1.213745   4 C  s         
 
 Vector  120  Occ=0.000000D+00  E= 1.168254D+01
              MO Center= -2.2D-01,  3.4D-01, -7.6D-01, r^2= 8.2D-01
   Bfn.  Coefficient  Atom+Function         Bfn.  Coefficient  Atom+Function  
  ----- ------------  ---------------      ----- ------------  ---------------
     6      3.397391   1 C  s                21     -3.396382   2 C  s         
     5     -2.653595   1 C  s                20      2.651513   2 C  s         
     4      2.593160   1 C  s                19     -2.591011   2 C  s         
     3     -2.365567   1 C  s                18      2.363709   2 C  s         
    30     -1.353932   2 C  pz                2      1.221766   1 C  s         
 
 Vector  121  Occ=0.000000D+00  E= 6.221580D+01
              MO Center= -2.2D-01,  3.2D-01, -7.3D-01, r^2= 7.3D-01
   Bfn.  Coefficient  Atom+Function         Bfn.  Coefficient  Atom+Function  
  ----- ------------  ---------------      ----- ------------  ---------------
     2      2.043799   1 C  s                17      2.045520   2 C  s         
     3     -1.549074   1 C  s                18     -1.550367   2 C  s         
     1     -1.212187   1 C  s                16     -1.213209   2 C  s         
     4      1.031037   1 C  s                19      1.031812   2 C  s         
     5     -0.828845   1 C  s                20     -0.829304   2 C  s         
 
 Vector  122  Occ=0.000000D+00  E= 6.244531D+01
              MO Center=  6.1D-02, -1.1D-01,  2.9D-01, r^2= 4.2D+00
   Bfn.  Coefficient  Atom+Function         Bfn.  Coefficient  Atom+Function  
  ----- ------------  ---------------      ----- ------------  ---------------
    35      1.704295   4 C  s                53      1.705932   6 C  s         
    36     -1.303369   4 C  s                54     -1.304602   6 C  s         
    71      1.168427   8 C  s                95      1.134527  12 C  s         
    34     -1.006242   4 C  s                52     -1.007211   6 C  s         
    72     -0.891914   8 C  s                37      0.878909   4 C  s         
 
 Vector  123  Occ=0.000000D+00  E= 6.244820D+01
              MO Center=  1.1D-01, -1.6D-01,  3.4D-01, r^2= 7.7D+00
   Bfn.  Coefficient  Atom+Function         Bfn.  Coefficient  Atom+Function  
  ----- ------------  ---------------      ----- ------------  ---------------
    95     -2.088561  12 C  s                71      2.076952   8 C  s         
    96      1.592426  12 C  s                72     -1.583565   8 C  s         
    94      1.234538  12 C  s                70     -1.227676   8 C  s         
    97     -1.068367  12 C  s                73      1.062635   8 C  s         
    74     -0.881528   8 C  s                98      0.885757  12 C  s         
 
 Vector  124  Occ=0.000000D+00  E= 6.246751D+01
              MO Center=  1.0D-01, -1.5D-01,  3.2D-01, r^2= 6.1D+00
   Bfn.  Coefficient  Atom+Function         Bfn.  Coefficient  Atom+Function  
  ----- ------------  ---------------      ----- ------------  ---------------
    95      1.722279  12 C  s                71      1.713300   8 C  s         
    96     -1.314344  12 C  s                72     -1.307500   8 C  s         
    35     -1.180328   4 C  s                53     -1.181840   6 C  s         
    94     -1.017603  12 C  s                70     -1.012294   8 C  s         
    36      0.902609   4 C  s                54      0.903759   6 C  s         
 
 Vector  125  Occ=0.000000D+00  E= 6.252878D+01
              MO Center=  8.4D-02, -1.2D-01,  2.9D-01, r^2= 2.6D+00
   Bfn.  Coefficient  Atom+Function         Bfn.  Coefficient  Atom+Function  
  ----- ------------  ---------------      ----- ------------  ---------------
    35      2.091274   4 C  s                53     -2.090266   6 C  s         
    36     -1.609754   4 C  s                54      1.608986   6 C  s         
    34     -1.231722   4 C  s                52      1.231126   6 C  s         
    37      1.129765   4 C  s                39      1.124895   4 C  s         
    55     -1.129267   6 C  s                57     -1.124252   6 C  s         
 
 Vector  126  Occ=0.000000D+00  E= 6.262678D+01
              MO Center= -2.3D-01,  3.4D-01, -7.6D-01, r^2= 5.4D-01
   Bfn.  Coefficient  Atom+Function         Bfn.  Coefficient  Atom+Function  
  ----- ------------  ---------------      ----- ------------  ---------------
     2      2.102440   1 C  s                17     -2.100877   2 C  s         
     3     -1.628881   1 C  s                18      1.627660   2 C  s         
     6      1.453723   1 C  s                21     -1.453329   2 C  s         
     1     -1.233814   1 C  s                16      1.232897   2 C  s         
     4      1.164245   1 C  s                19     -1.163330   2 C  s         
 

   alpha - beta orbital overlaps 
   ----------------------------- 


   alpha      1      2      3      4      5      6      7      8      9     10
    beta      1      2      3      4      5      6      7      8      9     10
 overlap   1.000  1.000  1.000  1.000  1.000  1.000  0.998  1.000  0.998  0.999


   alpha     11     12     13     14     15     16     17     18     19     20
    beta     11     12     13     14     15     16     17     18     19     20
 overlap   1.000  0.999  1.000  0.999  0.984  0.998  0.934  0.937  0.999  0.996


   alpha     21     22     23     24     25     26     27     28     29     30
    beta     21     22     23     24     25     26     27     28     29     31
 overlap   0.989  0.996  0.956  0.942  0.998  0.999  0.999  1.000  0.999  0.993


   alpha     31     32     33     34     35     36     37     38     39     40
    beta     30     32     33     34     35     36     37     38     39     40
 overlap   0.993  0.995  0.849  0.848  0.970  0.970  0.826  0.823  0.994  0.998


   alpha     41     42     43     44     45     46     47     48     49     50
    beta     41     42     43     45     44     46     47     48     49     50
 overlap   0.997  0.998  0.994  0.934  0.999  0.949  0.999  0.983  0.990  0.984


   alpha     51     52     53     54     55     56     57     58     59     60
    beta     52     51     53     54     55     56     57     58     59     60
 overlap   0.982  0.977  0.986  0.962  0.981  0.996  0.998  0.998  0.998  0.997


   alpha     61     62     63     64     65     66     67     68     69     70
    beta     61     62     63     64     65     66     67     68     69     70
 overlap   0.999  0.996  0.995  0.997  0.992  0.986  0.985  0.990  0.997  0.993


   alpha     71     72     73     74     75     76     77     78     79     80
    beta     71     72     73     74     75     76     77     78     80     79
 overlap   0.997  0.998  0.999  1.000  0.999  0.999  0.999  0.999  0.994  0.999


   alpha     81     82     83     84     85     86     87     88     89     90
    beta     82     81     83     84     85     86     87     88     89     90
 overlap   0.932  0.989  0.935  0.998  0.998  0.999  1.000  0.911  0.912  0.999


   alpha     91     92     93     94     95     96     97     98     99    100
    beta     91     92     93     94     95     96     97     98     99    100
 overlap   0.989  0.990  0.999  1.000  1.000  1.000  1.000  1.000  1.000  0.999


   alpha    101    102    103    104    105    106    107    108    109    110
    beta    101    102    103    104    105    106    107    108    109    110
 overlap   0.999  0.997  0.996  0.999  0.999  0.997  1.000  1.000  0.999  1.000


   alpha    111    112    113    114    115    116    117    118    119    120
    beta    112    111    113    114    115    116    117    118    119    120
 overlap   0.738  0.738  1.000  1.000  1.000  1.000  0.999  1.000  1.000  1.000


   alpha    121    122    123    124    125    126
    beta    121    122    123    124    125    126
 overlap   1.000  1.000  1.000  1.000  1.000  1.000

     --------------------------
     Expectation value of S2:  
     --------------------------
      <S2> =      0.7515 (Exact =     0.7500)
 

 center of mass
 --------------
 x =  -0.01049745 y =   0.01582267 z =  -0.03551111

 moments of inertia (a.u.)
 ------------------
         583.174990490247         358.759894904275         339.926544177057
         358.759894904275        1062.598186838944        -165.238641766414
         339.926544177057        -165.238641766414        1024.184556638268
 
     Multipole analysis of the density
     ---------------------------------
 
     L   x y z        total         alpha         beta         nuclear
     -   - - -        -----         -----         ----         -------
     0   0 0 0      1.000000    -24.000000    -23.000000     48.000000
 
     1   1 0 0     -0.114436      0.067544     -0.181979      0.000000
     1   0 1 0      0.168807     -0.101139      0.269946     -0.000000
     1   0 0 1     -0.382986      0.228990     -0.611976     -0.000000
 
     2   2 0 0    -19.164831   -243.373618   -238.440843    462.649630
     2   1 1 0     -5.047068    105.344358    103.731854   -214.123279
     2   1 0 1     -3.432841    100.706092     99.344533   -203.483467
     2   0 2 0    -22.000245    -98.847418    -95.015068    171.862241
     2   0 1 1      2.034965    -48.188319    -47.241332     97.464616
     2   0 0 2    -21.342481   -111.010341   -107.449858    197.117718
 

 Task  times  cpu:        9.1s     wall:        9.4s
 
 
                                NWChem Input Module
                                -------------------
 
 
 Summary of allocated global arrays
-----------------------------------
  No active global arrays



                         GA Statistics for process    0
                         ------------------------------

       create   destroy   get      put      acc     scatter   gather  read&inc
calls:  329      329     6.95e+04 3358     5.97e+04    0        0      492     
number of processes/call 7.95e+00 4.37e+01 6.03e+00 0.00e+00 0.00e+00
bytes total:             1.06e+08 1.30e+07 5.88e+07 0.00e+00 0.00e+00 3.94e+03
bytes remote:            8.53e+07 6.72e+06 4.99e+07 0.00e+00 0.00e+00 0.00e+00
Max memory consumed for GA by this process: 1165312 bytes
 
 
 
                                     CITATION
                                     --------
                Please cite the following reference when publishing
                           results obtained with NWChem:
 
          E. Apr, E. J. Bylaska, W. A. de Jong, N. Govind, K. Kowalski,
       T. P. Straatsma, M. Valiev, H. J. J. van Dam, Y. Alexeev, J. Anchell,
       V. Anisimov, F. W. Aquino, R. Atta-Fynn, J. Autschbach, N. P. Bauman,
     J. C. Becca, D. E. Bernholdt, K. Bhaskaran-Nair, S. Bogatko, P. Borowski,
        J. Boschen, J. Brabec, A. Bruner, E. Caut, Y. Chen, G. N. Chuev,
      C. J. Cramer, J. Daily, M. J. O. Deegan, T. H. Dunning Jr., M. Dupuis,
   K. G. Dyall, G. I. Fann, S. A. Fischer, A. Fonari, H. Frchtl, L. Gagliardi,
      J. Garza, N. Gawande, S. Ghosh, K. Glaesemann, A. W. Gtz, J. Hammond,
       V. Helms, E. D. Hermes, K. Hirao, S. Hirata, M. Jacquelin, L. Jensen,
   B. G. Johnson, H. Jnsson, R. A. Kendall, M. Klemm, R. Kobayashi, V. Konkov,
      S. Krishnamoorthy, M. Krishnan, Z. Lin, R. D. Lins, R. J. Littlefield,
      A. J. Logsdail, K. Lopata, W. Ma, A. V. Marenich, J. Martin del Campo,
   D. Mejia-Rodriguez, J. E. Moore, J. M. Mullin, T. Nakajima, D. R. Nascimento,
    J. A. Nichols, P. J. Nichols, J. Nieplocha, A. Otero-de-la-Roza, B. Palmer,
    A. Panyala, T. Pirojsirikul, B. Peng, R. Peverati, J. Pittner, L. Pollack,
   R. M. Richard, P. Sadayappan, G. C. Schatz, W. A. Shelton, D. W. Silverstein,
   D. M. A. Smith, T. A. Soares, D. Song, M. Swart, H. L. Taylor, G. S. Thomas,
            V. Tipparaju, D. G. Truhlar, K. Tsemekhman, T. Van Voorhis,
     . Vzquez-Mayagoitia, P. Verma, O. Villa, A. Vishnu, K. D. Vogiatzis,
        D. Wang, J. H. Weare, M. J. Williamson, T. L. Windus, K. Woliski,
        A. T. Wong, Q. Wu, C. Yang, Q. Yu, M. Zacharias, Z. Zhang, Y. Zhao,
                                and R. J. Harrison
                        "NWChem: Past, present, and future
                         J. Chem. Phys. 152, 184102 (2020)
                               doi:10.1063/5.0004997
 
                                      AUTHORS
                                      -------
     E. Apra, E. J. Bylaska, N. Govind, K. Kowalski, M. Valiev, W. A. de Jong,
      T. P. Straatsma, H. J. J. van Dam, D. Wang, T. L. Windus, N. P. Bauman,
       A. Panyala, J. Hammond, J. Autschbach, K. Bhaskaran-Nair, J. Brabec,
    K. Lopata, S. A. Fischer, S. Krishnamoorthy, M. Jacquelin, W. Ma, M. Klemm,
       O. Villa, Y. Chen, V. Anisimov, F. Aquino, S. Hirata, M. T. Hackler,
           Eric Hermes, L. Jensen, J. E. Moore, J. C. Becca, V. Konjkov,
            D. Mejia-Rodriguez, T. Risthaus, M. Malagoli, A. Marenich,
   A. Otero-de-la-Roza, J. Mullin, P. Nichols, R. Peverati, J. Pittner, Y. Zhao,
        P.-D. Fan, A. Fonari, M. J. Williamson, R. J. Harrison, J. R. Rehr,
      M. Dupuis, D. Silverstein, D. M. A. Smith, J. Nieplocha, V. Tipparaju,
      M. Krishnan, B. E. Van Kuiken, A. Vazquez-Mayagoitia, M. Swart, Q. Wu,
   T. Van Voorhis, A. A. Auer, M. Nooijen, L. D. Crosby, E. Brown, G. Cisneros,
     G. I. Fann, H. Fruchtl, J. Garza, K. Hirao, R. A. Kendall, J. A. Nichols,
       K. Tsemekhman, K. Wolinski, J. Anchell, D. E. Bernholdt, P. Borowski,
       T. Clark, D. Clerc, H. Dachsel, M. J. O. Deegan, K. Dyall, D. Elwood,
      E. Glendening, M. Gutowski, A. C. Hess, J. Jaffe, B. G. Johnson, J. Ju,
        R. Kobayashi, R. Kutteh, Z. Lin, R. Littlefield, X. Long, B. Meng,
      T. Nakajima, S. Niu, L. Pollack, M. Rosing, K. Glaesemann, G. Sandrone,
      M. Stave, H. Taylor, G. Thomas, J. H. van Lenthe, A. T. Wong, Z. Zhang.

 Total times  cpu:        9.1s     wall:        9.4s
