 
             Northwest Computational Chemistry Package (NWChem) 7.0.0
             --------------------------------------------------------
 
 
                    Environmental Molecular Sciences Laboratory
                       Pacific Northwest National Laboratory
                                Richland, WA 99352
 
                              Copyright (c) 1994-2020
                       Pacific Northwest National Laboratory
                            Battelle Memorial Institute
 
             NWChem is an open-source computational chemistry package
                        distributed under the terms of the
                      Educational Community License (ECL) 2.0
             A copy of the license is included with this distribution
                              in the LICENSE.TXT file
 
                                  ACKNOWLEDGMENT
                                  --------------

            This software and its documentation were developed at the
            EMSL at Pacific Northwest National Laboratory, a multiprogram
            national laboratory, operated for the U.S. Department of Energy
            by Battelle under Contract Number DE-AC05-76RL01830. Support
            for this work was provided by the Department of Energy Office
            of Biological and Environmental Research, Office of Basic
            Energy Sciences, and the Office of Advanced Scientific Computing.


                                NWChem Input Module
                                -------------------
 
 
 Summary of "ao basis" -> "" (spherical)
 ------------------------------------------------------------------------------
       Tag                 Description            Shells   Functions and Types
 ---------------- ------------------------------  ------  ---------------------
 *                        ahlrichs_vtz                on all atoms 



 Scaling coordinates for geometry "geometry" by  1.889725989
 (inverse scale =  0.529177249)

 
 
                             Geometry "geometry" -> ""
                             -------------------------
 
 Output coordinates in angstroms (scale by  1.889725989 to convert to a.u.)
 
  No.       Tag          Charge          X              Y              Z
 ---- ---------------- ---------- -------------- -------------- --------------
    1 C                    6.0000    -0.16967935     0.94344181     0.03403180
    2 C                    6.0000     1.16164306     1.05970556    -0.09819161
    3 H                    1.0000    -0.83958308     1.79849712     0.11701081
    4 O                    8.0000    -0.92465444    -0.22484646     0.08919552
    5 H                    1.0000     1.60669851     2.05252133    -0.12509637
    6 H                    1.0000     1.83895105     0.21163313    -0.18190575
    7 C                    6.0000    -0.18462767    -1.48112696    -0.00789798
    8 H                    1.0000    -0.93870849    -2.27058730     0.05443876
    9 H                    1.0000     0.53346294    -1.57853432     0.82197953
   10 H                    1.0000     0.35239834    -1.54688081    -0.96764432
 
      Atomic Mass 
      ----------- 
 
      C                 12.000000
      H                  1.007825
      O                 15.994910
 

 Effective nuclear repulsion energy (a.u.)     119.5911710318

            Nuclear Dipole moment (a.u.) 
            ----------------------------
        X                 Y               Z
 ---------------- ---------------- ----------------
     0.0000000000     0.0000000000     0.0000000000
 
 
            XYZ format geometry
            -------------------
    10
 geometry
 C                    -0.16967935     0.94344181     0.03403180
 C                     1.16164306     1.05970556    -0.09819161
 H                    -0.83958308     1.79849712     0.11701081
 O                    -0.92465444    -0.22484646     0.08919552
 H                     1.60669851     2.05252133    -0.12509637
 H                     1.83895105     0.21163313    -0.18190575
 C                    -0.18462767    -1.48112696    -0.00789798
 H                    -0.93870849    -2.27058730     0.05443876
 H                     0.53346294    -1.57853432     0.82197953
 H                     0.35239834    -1.54688081    -0.96764432
 
 ==============================================================================
                                internuclear distances
 ------------------------------------------------------------------------------
       center one      |      center two      | atomic units |  angstroms
 ------------------------------------------------------------------------------
    2 C                |   1 C                |     2.53774  |     1.34291
    3 H                |   1 C                |     2.05865  |     1.08939
    4 O                |   1 C                |     2.63068  |     1.39209
    5 H                |   2 C                |     2.05666  |     1.08834
    6 H                |   2 C                |     2.05710  |     1.08857
    7 C                |   4 O                |     2.76140  |     1.46127
    8 H                |   7 C                |     2.06644  |     1.09351
    9 H                |   7 C                |     2.08199  |     1.10174
   10 H                |   7 C                |     2.08199  |     1.10174
 ------------------------------------------------------------------------------
                         number of included internuclear distances:          9
 ==============================================================================



 ==============================================================================
                                 internuclear angles
 ------------------------------------------------------------------------------
        center 1       |       center 2       |       center 3       |  degrees
 ------------------------------------------------------------------------------
    2 C                |   1 C                |   3 H                |   123.31
    2 C                |   1 C                |   4 O                |   127.89
    3 H                |   1 C                |   4 O                |   108.80
    1 C                |   2 C                |   5 H                |   119.13
    1 C                |   2 C                |   6 H                |   123.85
    5 H                |   2 C                |   6 H                |   117.02
    1 C                |   4 O                |   7 C                |   116.37
    4 O                |   7 C                |   8 H                |   105.52
    4 O                |   7 C                |   9 H                |   110.86
    4 O                |   7 C                |  10 H                |   110.86
    8 H                |   7 C                |   9 H                |   110.04
    8 H                |   7 C                |  10 H                |   110.04
    9 H                |   7 C                |  10 H                |   109.46
 ------------------------------------------------------------------------------
                            number of included internuclear angles:         13
 ==============================================================================



                              Aldehyde and Ketone set
                              -----------------------
 
                                 NWChem DFT Module
                                 -----------------
 
 
                              Aldehyde and Ketone set
 
 
                      Basis "ao basis" -> "ao basis" (spherical)
                      -----
  C (Carbon)
  ----------
            Exponent  Coefficients 
       -------------- ---------------------------------------------------------
  1 S  8.50603840E+03  0.000534
  1 S  1.27573290E+03  0.004125
  1 S  2.90311870E+02  0.021171
  1 S  8.20562000E+01  0.082418
  1 S  2.64796410E+01  0.240129
 
  2 S  9.24145850E+00  1.000000
 
  3 S  3.36435300E+00  1.000000
 
  4 S  8.71741640E-01  1.000000
 
  5 S  3.63523520E-01  1.000000
 
  6 S  1.28731350E-01  1.000000
 
  7 P  3.47094960E+01  0.005330
  7 P  7.95908830E+00  0.035866
  7 P  2.37869720E+00  0.142003
  7 P  8.15400650E-01  0.342031
 
  8 P  2.89537850E-01  1.000000
 
  9 P  1.00847540E-01  1.000000
 
  H (Hydrogen)
  ------------
            Exponent  Coefficients 
       -------------- ---------------------------------------------------------
  1 S  3.40613410E+01  0.006025
  1 S  5.12357460E+00  0.045021
  1 S  1.16466260E+00  0.201897
 
  2 S  3.27230410E-01  1.000000
 
  3 S  1.03072410E-01  1.000000
 
  O (Oxygen)
  ----------
            Exponent  Coefficients 
       -------------- ---------------------------------------------------------
  1 S  1.59026475E+04  0.000515
  1 S  2.38495378E+03  0.003982
  1 S  5.42719572E+02  0.020477
  1 S  1.53404079E+02  0.080262
  1 S  4.95457161E+01  0.237668
 
  2 S  1.73396499E+01  1.000000
 
  3 S  6.33033553E+00  1.000000
 
  4 S  1.69958822E+00  1.000000
 
  5 S  6.89544913E-01  1.000000
 
  6 S  2.39360282E-01  1.000000
 
  7 P  6.32705240E+01  0.006071
  7 P  1.46233123E+01  0.041948
  7 P  4.44895180E+00  0.161569
  7 P  1.52815132E+00  0.356828
 
  8 P  5.29973159E-01  1.000000
 
  9 P  1.75094460E-01  1.000000
 


 Summary of "ao basis" -> "ao basis" (spherical)
 ------------------------------------------------------------------------------
       Tag                 Description            Shells   Functions and Types
 ---------------- ------------------------------  ------  ---------------------
 C                        ahlrichs vtz               9       15   6s3p
 H                        ahlrichs vtz               3        3   3s
 O                        ahlrichs vtz               9       15   6s3p




 Summary of "ao basis" -> "ao basis" (spherical)
 ------------------------------------------------------------------------------
       Tag                 Description            Shells   Functions and Types
 ---------------- ------------------------------  ------  ---------------------
 C                        ahlrichs vtz               9       15   6s3p
 H                        ahlrichs vtz               3        3   3s
 O                        ahlrichs vtz               9       15   6s3p


  Caching 1-el integrals 
 
            General Information
            -------------------
          SCF calculation type: DFT
          Wavefunction type:  spin polarized.
          No. of atoms     :    10
          No. of electrons :    31
           Alpha electrons :    16
            Beta electrons :    15
          Charge           :     1
          Spin multiplicity:     2
          Use of symmetry is: off; symmetry adaption is: off
          Maximum number of iterations: 999
          This is a Direct SCF calculation.
          AO basis - number of functions:    78
                     number of shells:    54
          Convergence on energy requested:  1.00D-08
          Convergence on density requested:  1.00D-07
          Convergence on gradient requested:  1.00D-06
 
              XC Information
              --------------
                        PBE96 Method XC Functional
          PerdewBurkeErnzerhof Exchange Functional  1.000          
            Perdew 1991 LDA Correlation Functional  1.000 local    
           PerdewBurkeErnz. Correlation Functional  1.000 non-local
 
             Grid Information
             ----------------
          Grid used for XC integration:  fine      
          Radial quadrature: Mura-Knowles        
          Angular quadrature: Lebedev. 
          Tag              B.-S. Rad. Rad. Pts. Rad. Cut. Ang. Pts.
          ---              ---------- --------- --------- ---------
          C                   0.70       70          11.0       590
          H                   0.35       60          13.0       590
          O                   0.60       70          10.0       590
          Grid pruning is: on 
          Number of quadrature shells:   640
          Spatial weights used:  Erf1
 
          Convergence Information
          -----------------------
          Convergence aids based upon iterative change in 
          total energy or number of iterations. 
          Levelshifting, if invoked, occurs when the 
          HOMO/LUMO gap drops below (HL_TOL):  1.00D-02
          DIIS, if invoked, will attempt to extrapolate 
          using up to (NFOCK): 10 stored Fock matrices.

                    Damping( 0%)  Levelshifting(0.5)       DIIS
                  --------------- ------------------- ---------------
          dE  on:    start            ASAP                start   
          dE off:    2 iters        999 iters           999 iters 

 
      Screening Tolerance Information
      -------------------------------
          Density screening/tol_rho:  1.00D-12
          AO Gaussian exp screening on grid/accAOfunc:  18
          CD Gaussian exp screening on grid/accCDfunc:  20
          XC Gaussian exp screening on grid/accXCfunc:  20
          Schwarz screening/accCoul:  1.00D-12

      Dispersion Parameters
      ---------------------

           DFT-D3BJ Model   
          s6 scale factor  :        1.000000000000
          s8 scale factor  :        0.787500000000
          a1 parameter     :        0.428900000000
          a2 parameter     :        4.440700000000
              vdW contrib  :       -0.005835191569


 Forcing the number of linearly dependent vectors to be  0
 
      Superposition of Atomic Density Guess
      -------------------------------------
 
 Sum of atomic energies:        -190.79620209
   Time after variat. SCF:      0.1
   Time prior to 1st pass:      0.1

 Grid_pts file          = ./22_MeOCHCH2.gridpts.00
 Record size in doubles =  12289        No. of grid_pts per rec  =   3070
 Max. records in memory =     11        Max. recs in file   =  67550051

 Grid integrated density:      31.999996333900
 Requested integration accuracy:   0.10E-06

           Memory utilization after 1st SCF pass: 
           Heap Space remaining (MW):        0.00                 343
          Stack Space remaining (MW):      288.36           288357364

   convergence    iter        energy       DeltaE   RMS-Dens  Diis-err    time
 ---------------- ----- ----------------- --------- --------- ---------  ------
 d= 0,ls=0.0,diis     1   -193.3205254427 -3.13D+02  1.56D-02  1.09D+01     0.3
                                                     1.50D-02  9.61D+00
 d= 0,ls=0.0,diis     2   -192.5109907242  8.10D-01  5.14D-03  1.09D-01     0.6
                                                     4.99D-03  1.04D-01
 d= 0,ls=0.0,diis     3   -192.4080227664  1.03D-01  4.03D-03  3.36D-01     0.8
                                                     4.37D-03  3.17D-01
 d= 0,ls=0.0,diis     4   -192.5307371990 -1.23D-01  1.52D-03  7.32D-02     1.1
                                                     2.08D-03  6.98D-02
 d= 0,ls=0.0,diis     5   -192.5592487576 -2.85D-02  4.36D-04  4.70D-03     1.3
                                                     6.59D-04  5.46D-03
 d= 0,ls=0.0,diis     6   -192.5615431190 -2.29D-03  2.19D-04  5.93D-04     1.5
                                                     1.93D-04  4.99D-04
 d= 0,ls=0.0,diis     7   -192.5618316194 -2.89D-04  5.49D-05  4.47D-05     1.8
                                                     7.25D-05  5.66D-05
 d= 0,ls=0.0,diis     8   -192.5618602745 -2.87D-05  2.59D-05  7.10D-06     2.0
                                                     2.10D-05  3.63D-06
 d= 0,ls=0.0,diis     9   -192.5618631414 -2.87D-06  1.01D-05  7.38D-07     2.3
                                                     1.55D-05  1.31D-06
 d= 0,ls=0.0,diis    10   -192.5618639536 -8.12D-07  2.44D-06  3.41D-08     2.6
                                                     2.66D-06  3.65D-08
 d= 0,ls=0.0,diis    11   -192.5618639825 -2.89D-08  5.48D-07  1.65D-09     2.9
                                                     4.27D-07  9.74D-10
 d= 0,ls=0.0,diis    12   -192.5618639834 -9.11D-10  1.04D-07  5.17D-11     3.3
                                                     1.40D-07  6.38D-11
 d= 0,ls=0.0,diis    13   -192.5618639835 -5.24D-11  2.22D-08  1.78D-12     3.6
                                                     3.00D-08  1.55D-12


         Total DFT energy =     -192.561863983458
      One electron energy =     -489.027535737917
           Coulomb energy =      203.318375430598
          Exchange energy =      -25.441667867138
       Correlation energy =       -0.996371649213
 Nuclear repulsion energy =      119.591171031781

    Dispersion correction =       -0.005835191569

 Numeric. integr. density =       30.999999298222

     Total iterative time =      3.5s


 
                    DFT Final Alpha Molecular Orbital Analysis
                    ------------------------------------------
 
 Vector    1  Occ=1.000000D+00  E=-1.910633D+01
              MO Center= -9.2D-01, -2.2D-01,  8.9D-02, r^2= 1.5D-02
   Bfn.  Coefficient  Atom+Function         Bfn.  Coefficient  Atom+Function  
  ----- ------------  ---------------      ----- ------------  ---------------
    35      0.424541   4 O  s                36      0.366338   4 O  s         
    34      0.299471   4 O  s                37      0.055418   4 O  s         
 
 Vector    2  Occ=1.000000D+00  E=-1.023172D+01
              MO Center= -1.7D-01,  9.4D-01,  3.4D-02, r^2= 2.8D-02
   Bfn.  Coefficient  Atom+Function         Bfn.  Coefficient  Atom+Function  
  ----- ------------  ---------------      ----- ------------  ---------------
     2      0.424143   1 C  s                 3      0.359693   1 C  s         
     1      0.308778   1 C  s                 4      0.057119   1 C  s         
 
 Vector    3  Occ=1.000000D+00  E=-1.018445D+01
              MO Center=  1.2D+00,  1.1D+00, -9.8D-02, r^2= 2.8D-02
   Bfn.  Coefficient  Atom+Function         Bfn.  Coefficient  Atom+Function  
  ----- ------------  ---------------      ----- ------------  ---------------
    17      0.423913   2 C  s                18      0.359752   2 C  s         
    16      0.308680   2 C  s                19      0.057760   2 C  s         
 
 Vector    4  Occ=1.000000D+00  E=-1.016458D+01
              MO Center= -1.8D-01, -1.5D+00, -7.9D-03, r^2= 2.8D-02
   Bfn.  Coefficient  Atom+Function         Bfn.  Coefficient  Atom+Function  
  ----- ------------  ---------------      ----- ------------  ---------------
    56      0.424240   7 C  s                57      0.359564   7 C  s         
    55      0.308834   7 C  s                58      0.057170   7 C  s         
 
 Vector    5  Occ=1.000000D+00  E=-1.263785D+00
              MO Center= -6.7D-01, -1.6D-01,  6.5D-02, r^2= 6.1D-01
   Bfn.  Coefficient  Atom+Function         Bfn.  Coefficient  Atom+Function  
  ----- ------------  ---------------      ----- ------------  ---------------
    38      0.517782   4 O  s                39      0.279037   4 O  s         
     5      0.163522   1 C  s                36     -0.144448   4 O  s         
    35     -0.119622   4 O  s                37      0.119426   4 O  s         
    59      0.119213   7 C  s                43      0.097259   4 O  px        
    40      0.091132   4 O  px                8     -0.077471   1 C  py        
 
 Vector    6  Occ=1.000000D+00  E=-9.808461D-01
              MO Center=  4.3D-01,  8.3D-01, -2.9D-02, r^2= 1.5D+00
   Bfn.  Coefficient  Atom+Function         Bfn.  Coefficient  Atom+Function  
  ----- ------------  ---------------      ----- ------------  ---------------
    20      0.395358   2 C  s                 5      0.354698   1 C  s         
    59     -0.132163   7 C  s                38     -0.125251   4 O  s         
    18     -0.115027   2 C  s                 7      0.111549   1 C  px        
     3     -0.103180   1 C  s                21      0.098611   2 C  s         
    22     -0.097954   2 C  px               39     -0.090522   4 O  s         
 
 Vector    7  Occ=1.000000D+00  E=-8.936733D-01
              MO Center= -2.0D-01, -5.4D-01,  1.0D-02, r^2= 2.3D+00
   Bfn.  Coefficient  Atom+Function         Bfn.  Coefficient  Atom+Function  
  ----- ------------  ---------------      ----- ------------  ---------------
    59      0.413466   7 C  s                41     -0.222209   4 O  py        
    20      0.203242   2 C  s                44     -0.183788   4 O  py        
    60      0.176248   7 C  s                 7      0.138437   1 C  px        
     5     -0.129392   1 C  s                57     -0.106162   7 C  s         
    10      0.102500   1 C  px               56     -0.086114   7 C  s         
 
 Vector    8  Occ=1.000000D+00  E=-7.673993D-01
              MO Center=  2.3D-01, -9.3D-02, -2.4D-02, r^2= 3.5D+00
   Bfn.  Coefficient  Atom+Function         Bfn.  Coefficient  Atom+Function  
  ----- ------------  ---------------      ----- ------------  ---------------
     5      0.297394   1 C  s                59      0.271727   7 C  s         
    20     -0.251005   2 C  s                39     -0.170706   4 O  s         
    38     -0.166648   4 O  s                60      0.125197   7 C  s         
    41      0.119218   4 O  py               22     -0.114870   2 C  px        
    44      0.103098   4 O  py               21     -0.096522   2 C  s         
 
 Vector    9  Occ=1.000000D+00  E=-7.193343D-01
              MO Center=  8.3D-02,  3.2D-01, -2.7D-03, r^2= 2.6D+00
   Bfn.  Coefficient  Atom+Function         Bfn.  Coefficient  Atom+Function  
  ----- ------------  ---------------      ----- ------------  ---------------
     8      0.229897   1 C  py               11      0.193702   1 C  py        
    41     -0.189000   4 O  py               23      0.169371   2 C  py        
    44     -0.160621   4 O  py               26      0.138609   2 C  py        
    40     -0.135795   4 O  px               61     -0.132982   7 C  px        
    64     -0.125338   7 C  px               43     -0.107007   4 O  px        
 
 Vector   10  Occ=1.000000D+00  E=-6.952411D-01
              MO Center=  5.0D-01,  5.9D-01, -4.0D-02, r^2= 2.9D+00
   Bfn.  Coefficient  Atom+Function         Bfn.  Coefficient  Atom+Function  
  ----- ------------  ---------------      ----- ------------  ---------------
    22      0.253526   2 C  px                7     -0.221590   1 C  px        
    10     -0.197626   1 C  px               20      0.166416   2 C  s         
    25      0.146907   2 C  px               41      0.135348   4 O  py        
    40     -0.133960   4 O  px               44      0.120446   4 O  py        
    43     -0.116116   4 O  px               62     -0.115665   7 C  py        
 
 Vector   11  Occ=1.000000D+00  E=-6.699917D-01
              MO Center= -4.5D-01, -4.9D-01,  3.7D-02, r^2= 1.7D+00
   Bfn.  Coefficient  Atom+Function         Bfn.  Coefficient  Atom+Function  
  ----- ------------  ---------------      ----- ------------  ---------------
    42      0.337662   4 O  pz               45      0.287733   4 O  pz        
    63      0.202756   7 C  pz               66      0.194717   7 C  pz        
    48      0.144976   4 O  pz                9      0.143387   1 C  pz        
    12      0.137567   1 C  pz               73      0.076784   9 H  s         
    74      0.076446   9 H  s                76     -0.076820  10 H  s         
 
 Vector   12  Occ=1.000000D+00  E=-6.134712D-01
              MO Center=  3.5D-01,  9.1D-02, -3.4D-02, r^2= 3.7D+00
   Bfn.  Coefficient  Atom+Function         Bfn.  Coefficient  Atom+Function  
  ----- ------------  ---------------      ----- ------------  ---------------
    23      0.261124   2 C  py               26      0.234453   2 C  py        
    40      0.219041   4 O  px               43      0.195434   4 O  px        
    50      0.151711   5 H  s                62      0.142290   7 C  py        
    61      0.138188   7 C  px               64      0.133292   7 C  px        
    49      0.124397   5 H  s                65      0.121270   7 C  py        
 
 Vector   13  Occ=1.000000D+00  E=-5.914685D-01
              MO Center= -4.3D-02,  2.8D-01,  9.4D-03, r^2= 3.5D+00
   Bfn.  Coefficient  Atom+Function         Bfn.  Coefficient  Atom+Function  
  ----- ------------  ---------------      ----- ------------  ---------------
    32      0.189054   3 H  s                62      0.187627   7 C  py        
     8      0.170940   1 C  py               65      0.171438   7 C  py        
    41     -0.166067   4 O  py               11      0.151067   1 C  py        
    44     -0.151182   4 O  py                7     -0.149904   1 C  px        
    23     -0.145138   2 C  py               26     -0.144952   2 C  py        
 
 Vector   14  Occ=1.000000D+00  E=-5.659647D-01
              MO Center=  7.9D-02, -5.6D-01, -1.8D-02, r^2= 2.6D+00
   Bfn.  Coefficient  Atom+Function         Bfn.  Coefficient  Atom+Function  
  ----- ------------  ---------------      ----- ------------  ---------------
    63      0.264646   7 C  pz               66      0.222587   7 C  pz        
     9     -0.209815   1 C  pz               12     -0.203079   1 C  pz        
    74      0.168401   9 H  s                77     -0.168439  10 H  s         
    42     -0.163578   4 O  pz               24     -0.157342   2 C  pz        
    27     -0.145154   2 C  pz               45     -0.140730   4 O  pz        
 
 Vector   15  Occ=1.000000D+00  E=-5.461222D-01
              MO Center= -5.6D-01, -8.1D-01,  4.2D-02, r^2= 2.1D+00
   Bfn.  Coefficient  Atom+Function         Bfn.  Coefficient  Atom+Function  
  ----- ------------  ---------------      ----- ------------  ---------------
    40      0.315454   4 O  px               43      0.263205   4 O  px        
    61     -0.248549   7 C  px               64     -0.201647   7 C  px        
    71      0.161837   8 H  s                39     -0.160523   4 O  s         
    46      0.151437   4 O  px               38     -0.141906   4 O  s         
    25      0.118040   2 C  px               70      0.118374   8 H  s         
 
 Vector   16  Occ=1.000000D+00  E=-5.014996D-01
              MO Center=  2.7D-01,  4.0D-01, -2.0D-02, r^2= 2.5D+00
   Bfn.  Coefficient  Atom+Function         Bfn.  Coefficient  Atom+Function  
  ----- ------------  ---------------      ----- ------------  ---------------
    27      0.315610   2 C  pz               42     -0.310389   4 O  pz        
    24      0.304854   2 C  pz               45     -0.266650   4 O  pz        
    48     -0.189622   4 O  pz                9      0.160584   1 C  pz        
    12      0.150724   1 C  pz               30      0.130984   2 C  pz        
    74      0.101247   9 H  s                77     -0.101293  10 H  s         
 
 Vector   17  Occ=0.000000D+00  E=-2.911679D-01
              MO Center=  3.2D-01,  9.2D-01, -1.6D-02, r^2= 1.9D+00
   Bfn.  Coefficient  Atom+Function         Bfn.  Coefficient  Atom+Function  
  ----- ------------  ---------------      ----- ------------  ---------------
    12      0.444583   1 C  pz               15      0.414366   1 C  pz        
     9      0.384143   1 C  pz               30     -0.382524   2 C  pz        
    27     -0.357908   2 C  pz               24     -0.308626   2 C  pz        
    48     -0.179670   4 O  pz               42     -0.177344   4 O  pz        
    45     -0.144355   4 O  pz               74      0.057024   9 H  s         
 
 Vector   18  Occ=0.000000D+00  E=-1.932868D-01
              MO Center= -6.6D-02, -4.0D-01, -4.1D-04, r^2= 3.7D+00
   Bfn.  Coefficient  Atom+Function         Bfn.  Coefficient  Atom+Function  
  ----- ------------  ---------------      ----- ------------  ---------------
    39      1.010560   4 O  s                51     -0.523038   5 H  s         
    68     -0.488201   7 C  py               54      0.484718   6 H  s         
    29      0.392469   2 C  py               65     -0.337385   7 C  py        
    11      0.306952   1 C  py               67      0.301146   7 C  px        
    43      0.262707   4 O  px               60     -0.255068   7 C  s         
 
 Vector   19  Occ=0.000000D+00  E=-1.613456D-01
              MO Center=  1.1D+00, -4.6D-01, -1.1D-01, r^2= 6.0D+00
   Bfn.  Coefficient  Atom+Function         Bfn.  Coefficient  Atom+Function  
  ----- ------------  ---------------      ----- ------------  ---------------
    60      1.601513   7 C  s                21      1.205451   2 C  s         
    54     -1.144310   6 H  s                75     -0.753994   9 H  s         
    78     -0.753983  10 H  s                51     -0.539171   5 H  s         
    28      0.405505   2 C  px               33     -0.348272   3 H  s         
    14      0.343578   1 C  py               20      0.323058   2 C  s         
 
 Vector   20  Occ=0.000000D+00  E=-1.396673D-01
              MO Center= -2.2D-02,  1.4D+00,  2.7D-02, r^2= 5.6D+00
   Bfn.  Coefficient  Atom+Function         Bfn.  Coefficient  Atom+Function  
  ----- ------------  ---------------      ----- ------------  ---------------
    33      1.499407   3 H  s                 6     -0.978330   1 C  s         
    51      0.888238   5 H  s                54     -0.535787   6 H  s         
    14     -0.507385   1 C  py               13      0.366403   1 C  px        
    68     -0.365826   7 C  py               75     -0.337362   9 H  s         
    78     -0.337202  10 H  s                29     -0.306447   2 C  py        
 
 Vector   21  Occ=0.000000D+00  E=-1.168943D-01
              MO Center=  6.7D-01, -3.2D-01, -7.3D-02, r^2= 6.0D+00
   Bfn.  Coefficient  Atom+Function         Bfn.  Coefficient  Atom+Function  
  ----- ------------  ---------------      ----- ------------  ---------------
    60      1.565024   7 C  s                21     -1.277074   2 C  s         
    54      0.924170   6 H  s                75     -0.864207   9 H  s         
    78     -0.863963  10 H  s                 6     -0.712371   1 C  s         
    51      0.641665   5 H  s                68      0.610168   7 C  py        
    14      0.601443   1 C  py               47      0.456665   4 O  py        
 
 Vector   22  Occ=0.000000D+00  E=-1.078446D-01
              MO Center=  1.6D-01,  6.1D-01, -5.6D-03, r^2= 7.2D+00
   Bfn.  Coefficient  Atom+Function         Bfn.  Coefficient  Atom+Function  
  ----- ------------  ---------------      ----- ------------  ---------------
     6      2.312776   1 C  s                21     -1.567899   2 C  s         
    51      0.927421   5 H  s                33     -0.913847   3 H  s         
    72     -0.803733   8 H  s                28      0.665239   2 C  px        
    60      0.620319   7 C  s                68     -0.534168   7 C  py        
     5      0.423865   1 C  s                47     -0.396575   4 O  py        
 
 Vector   23  Occ=0.000000D+00  E=-9.645102D-02
              MO Center=  6.6D-01, -1.4D+00, -9.1D-02, r^2= 4.0D+00
   Bfn.  Coefficient  Atom+Function         Bfn.  Coefficient  Atom+Function  
  ----- ------------  ---------------      ----- ------------  ---------------
    75      1.815733   9 H  s                78     -1.815174  10 H  s         
    69     -1.211846   7 C  pz               66     -0.446142   7 C  pz        
    63     -0.294597   7 C  pz               30      0.246633   2 C  pz        
    48      0.191952   4 O  pz               27     -0.161838   2 C  pz        
    74      0.161595   9 H  s                77     -0.161492  10 H  s         
 
 Vector   24  Occ=0.000000D+00  E=-7.596897D-02
              MO Center= -8.6D-01, -1.8D+00,  5.5D-02, r^2= 5.5D+00
   Bfn.  Coefficient  Atom+Function         Bfn.  Coefficient  Atom+Function  
  ----- ------------  ---------------      ----- ------------  ---------------
    72      2.467072   8 H  s                67      1.311274   7 C  px        
    33     -1.019116   3 H  s                 6      0.908045   1 C  s         
    54     -0.710178   6 H  s                68      0.706694   7 C  py        
    75     -0.709121   9 H  s                78     -0.709984  10 H  s         
    60     -0.518540   7 C  s                14      0.512215   1 C  py        
 
 Vector   25  Occ=0.000000D+00  E=-4.117680D-02
              MO Center=  6.6D-01,  8.7D-01, -5.1D-02, r^2= 6.9D+00
   Bfn.  Coefficient  Atom+Function         Bfn.  Coefficient  Atom+Function  
  ----- ------------  ---------------      ----- ------------  ---------------
    51      2.066671   5 H  s                29     -1.834553   2 C  py        
    54     -1.776551   6 H  s                14      1.643062   1 C  py        
    33     -1.309277   3 H  s                67     -0.804215   7 C  px        
    75      0.650556   9 H  s                78      0.651097  10 H  s         
    39      0.638411   4 O  s                 6     -0.589840   1 C  s         
 
 Vector   26  Occ=0.000000D+00  E=-1.102331D-02
              MO Center=  1.3D+00,  4.0D-01, -1.2D-01, r^2= 6.1D+00
   Bfn.  Coefficient  Atom+Function         Bfn.  Coefficient  Atom+Function  
  ----- ------------  ---------------      ----- ------------  ---------------
    28      2.425228   2 C  px                6      1.907105   1 C  s         
    13      1.779941   1 C  px               21     -1.779490   2 C  s         
    33      1.534638   3 H  s                67     -1.284572   7 C  px        
    54     -0.733755   6 H  s                14     -0.695134   1 C  py        
    51     -0.557480   5 H  s                47      0.492995   4 O  py        
 
 Vector   27  Occ=0.000000D+00  E=-8.388091D-03
              MO Center=  1.4D-02,  3.9D-01,  3.6D-03, r^2= 5.7D+00
   Bfn.  Coefficient  Atom+Function         Bfn.  Coefficient  Atom+Function  
  ----- ------------  ---------------      ----- ------------  ---------------
    69      1.280161   7 C  pz               75     -0.999285   9 H  s         
    78      0.994010  10 H  s                15      0.852371   1 C  pz        
    30      0.435902   2 C  pz               12     -0.424721   1 C  pz        
    27     -0.343449   2 C  pz               74     -0.277158   9 H  s         
    77      0.275389  10 H  s                48     -0.229108   4 O  pz        
 
 Vector   28  Occ=0.000000D+00  E= 1.985848D-02
              MO Center=  2.4D-01,  4.6D-01, -1.7D-02, r^2= 5.2D+00
   Bfn.  Coefficient  Atom+Function         Bfn.  Coefficient  Atom+Function  
  ----- ------------  ---------------      ----- ------------  ---------------
    13      1.301883   1 C  px               29      1.179068   2 C  py        
    54      1.107101   6 H  s                33      0.945674   3 H  s         
     6      0.898712   1 C  s                14     -0.895088   1 C  py        
    51     -0.766723   5 H  s                67     -0.721953   7 C  px        
    21     -0.677289   2 C  s                28     -0.620579   2 C  px        
 
 Vector   29  Occ=0.000000D+00  E= 2.316621D-02
              MO Center= -3.4D-02, -8.7D-01, -1.1D-02, r^2= 6.9D+00
   Bfn.  Coefficient  Atom+Function         Bfn.  Coefficient  Atom+Function  
  ----- ------------  ---------------      ----- ------------  ---------------
    69      1.764273   7 C  pz               30     -0.867332   2 C  pz        
    75     -0.416176   9 H  s                78      0.416995  10 H  s         
    27      0.383194   2 C  pz               74     -0.354933   9 H  s         
    77      0.354712  10 H  s                66     -0.327449   7 C  pz        
    48     -0.234148   4 O  pz               67      0.179978   7 C  px        
 
 Vector   30  Occ=0.000000D+00  E= 4.707782D-02
              MO Center= -5.9D-01,  7.1D-01,  7.2D-02, r^2= 5.4D+00
   Bfn.  Coefficient  Atom+Function         Bfn.  Coefficient  Atom+Function  
  ----- ------------  ---------------      ----- ------------  ---------------
    13      3.315294   1 C  px               21     -2.099878   2 C  s         
    28      2.073007   2 C  px                6      1.691461   1 C  s         
    33      1.456602   3 H  s                51     -1.273611   5 H  s         
    54     -1.073140   6 H  s                67      0.693253   7 C  px        
    14      0.553836   1 C  py               72      0.540707   8 H  s         
 
 Vector   31  Occ=0.000000D+00  E= 6.124292D-02
              MO Center=  2.3D-01, -5.6D-01, -3.4D-02, r^2= 6.6D+00
   Bfn.  Coefficient  Atom+Function         Bfn.  Coefficient  Atom+Function  
  ----- ------------  ---------------      ----- ------------  ---------------
    14      2.073763   1 C  py               68      2.002906   7 C  py        
    33     -1.276523   3 H  s                29     -1.224758   2 C  py        
    54     -0.947656   6 H  s                60      0.812873   7 C  s         
    59     -0.717851   7 C  s                72      0.703494   8 H  s         
    50      0.669401   5 H  s                 6     -0.642591   1 C  s         
 
 Vector   32  Occ=0.000000D+00  E= 7.604549D-02
              MO Center=  2.7D-01,  7.2D-01, -1.5D-02, r^2= 6.3D+00
   Bfn.  Coefficient  Atom+Function         Bfn.  Coefficient  Atom+Function  
  ----- ------------  ---------------      ----- ------------  ---------------
    15      1.745491   1 C  pz               30     -1.488007   2 C  pz        
    69     -0.860417   7 C  pz               12     -0.538739   1 C  pz        
    27      0.456874   2 C  pz               74      0.344428   9 H  s         
    77     -0.344169  10 H  s                75      0.293833   9 H  s         
    78     -0.293733  10 H  s                 9     -0.216900   1 C  pz        
 
 Vector   33  Occ=0.000000D+00  E= 8.253554D-02
              MO Center=  4.2D-01,  1.8D-01, -4.0D-02, r^2= 5.0D+00
   Bfn.  Coefficient  Atom+Function         Bfn.  Coefficient  Atom+Function  
  ----- ------------  ---------------      ----- ------------  ---------------
    29      1.525686   2 C  py               21     -1.191235   2 C  s         
    51     -1.142059   5 H  s                54      1.058877   6 H  s         
     5      0.902089   1 C  s                53      0.728470   6 H  s         
    60      0.613318   7 C  s                14      0.585867   1 C  py        
    71     -0.578213   8 H  s                11     -0.383504   1 C  py        
 
 Vector   34  Occ=0.000000D+00  E= 1.542438D-01
              MO Center=  3.8D-01,  4.8D-01, -3.0D-02, r^2= 4.6D+00
   Bfn.  Coefficient  Atom+Function         Bfn.  Coefficient  Atom+Function  
  ----- ------------  ---------------      ----- ------------  ---------------
     6      2.467983   1 C  s                54     -1.986446   6 H  s         
    21     -1.900344   2 C  s                28      1.271131   2 C  px        
    33      1.132145   3 H  s                10      0.839483   1 C  px        
    13      0.831213   1 C  px               67      0.782983   7 C  px        
    25      0.730065   2 C  px               53      0.632023   6 H  s         
 
 Vector   35  Occ=0.000000D+00  E= 1.804006D-01
              MO Center=  2.5D-01, -4.4D-01, -3.3D-02, r^2= 6.7D+00
   Bfn.  Coefficient  Atom+Function         Bfn.  Coefficient  Atom+Function  
  ----- ------------  ---------------      ----- ------------  ---------------
    72      2.749558   8 H  s                14      2.570824   1 C  py        
    67      2.515687   7 C  px               68      2.325636   7 C  py        
    33     -2.235177   3 H  s                13     -2.223081   1 C  px        
    21      1.663668   2 C  s                54     -1.377972   6 H  s         
     6      0.887051   1 C  s                29     -0.885071   2 C  py        
 
 Vector   36  Occ=0.000000D+00  E= 2.026411D-01
              MO Center=  5.2D-01,  6.9D-01, -4.0D-02, r^2= 6.8D+00
   Bfn.  Coefficient  Atom+Function         Bfn.  Coefficient  Atom+Function  
  ----- ------------  ---------------      ----- ------------  ---------------
    29      3.367253   2 C  py               54      2.650305   6 H  s         
    51     -2.551460   5 H  s                33     -2.514001   3 H  s         
     6      1.909612   1 C  s                13     -1.409117   1 C  px        
    68      0.870505   7 C  py               26     -0.766086   2 C  py        
    10      0.669893   1 C  px               53     -0.617535   6 H  s         
 
 Vector   37  Occ=0.000000D+00  E= 2.253475D-01
              MO Center=  5.0D-01, -1.5D+00, -7.9D-02, r^2= 4.5D+00
   Bfn.  Coefficient  Atom+Function         Bfn.  Coefficient  Atom+Function  
  ----- ------------  ---------------      ----- ------------  ---------------
    75      2.972993   9 H  s                78     -2.975015  10 H  s         
    69     -2.358519   7 C  pz               74     -1.164859   9 H  s         
    77      1.165676  10 H  s                66      1.056340   7 C  pz        
    30     -0.489852   2 C  pz               15      0.384455   1 C  pz        
    63      0.316702   7 C  pz               67     -0.237439   7 C  px        
 
 Vector   38  Occ=0.000000D+00  E= 2.430377D-01
              MO Center=  6.0D-01,  1.9D-01, -5.7D-02, r^2= 9.1D+00
   Bfn.  Coefficient  Atom+Function         Bfn.  Coefficient  Atom+Function  
  ----- ------------  ---------------      ----- ------------  ---------------
    29      4.617156   2 C  py               51     -4.385163   5 H  s         
    14     -3.213548   1 C  py               72      2.500708   8 H  s         
    33      2.475360   3 H  s                67      1.950874   7 C  px        
    13      1.629857   1 C  px               54      1.584395   6 H  s         
    75     -1.393092   9 H  s                78     -1.390360  10 H  s         
 
 Vector   39  Occ=0.000000D+00  E= 2.682841D-01
              MO Center= -6.8D-02, -2.2D-03,  6.9D-03, r^2= 7.2D+00
   Bfn.  Coefficient  Atom+Function         Bfn.  Coefficient  Atom+Function  
  ----- ------------  ---------------      ----- ------------  ---------------
    54     -2.797302   6 H  s                29     -2.666756   2 C  py        
    33     -2.621844   3 H  s                 6      2.608340   1 C  s         
    14      2.186325   1 C  py               51      1.631349   5 H  s         
    21      1.600101   2 C  s                72      1.550908   8 H  s         
    67      1.147720   7 C  px               20     -1.092549   2 C  s         
 
 Vector   40  Occ=0.000000D+00  E= 2.817733D-01
              MO Center= -4.2D-01, -2.2D-01,  3.8D-02, r^2= 6.6D+00
   Bfn.  Coefficient  Atom+Function         Bfn.  Coefficient  Atom+Function  
  ----- ------------  ---------------      ----- ------------  ---------------
    33      2.923465   3 H  s                13      2.222869   1 C  px        
    72      1.864723   8 H  s                60     -1.698898   7 C  s         
    28      1.532820   2 C  px               14     -1.502595   1 C  py        
    51     -1.484827   5 H  s                68      1.490455   7 C  py        
    67      1.378416   7 C  px                5      1.339787   1 C  s         
 
 Vector   41  Occ=0.000000D+00  E= 2.878996D-01
              MO Center= -2.1D-01, -9.2D-01,  5.1D-03, r^2= 7.7D+00
   Bfn.  Coefficient  Atom+Function         Bfn.  Coefficient  Atom+Function  
  ----- ------------  ---------------      ----- ------------  ---------------
    60      4.119815   7 C  s                51     -2.391799   5 H  s         
    29      2.216893   2 C  py               72     -2.049258   8 H  s         
    13      1.788881   1 C  px               59     -1.735491   7 C  s         
    14     -1.691872   1 C  py               33      1.605466   3 H  s         
    28      1.301443   2 C  px               46     -1.304995   4 O  px        
 
 Vector   42  Occ=0.000000D+00  E= 3.069759D-01
              MO Center=  7.1D-01,  2.6D-01, -6.7D-02, r^2= 7.5D+00
   Bfn.  Coefficient  Atom+Function         Bfn.  Coefficient  Atom+Function  
  ----- ------------  ---------------      ----- ------------  ---------------
    14      4.203383   1 C  py               21      4.128716   2 C  s         
    54     -3.664214   6 H  s                33     -2.824554   3 H  s         
    60     -2.523836   7 C  s                 6      2.372198   1 C  s         
    28      2.272385   2 C  px               29     -2.074189   2 C  py        
    13     -1.721686   1 C  px               75      1.637867   9 H  s         
 
 Vector   43  Occ=0.000000D+00  E= 3.163171D-01
              MO Center= -9.6D-01, -2.3D-01,  9.3D-02, r^2= 3.6D+00
   Bfn.  Coefficient  Atom+Function         Bfn.  Coefficient  Atom+Function  
  ----- ------------  ---------------      ----- ------------  ---------------
    48      2.079666   4 O  pz               69     -1.509476   7 C  pz        
    75      0.910975   9 H  s                78     -0.914239  10 H  s         
    15     -0.900368   1 C  pz               45     -0.688242   4 O  pz        
    30      0.322692   2 C  pz               42     -0.287376   4 O  pz        
    46      0.208969   4 O  px               67     -0.153489   7 C  px        
 
 Vector   44  Occ=0.000000D+00  E= 3.594682D-01
              MO Center=  6.6D-01,  3.7D-01, -6.0D-02, r^2= 5.1D+00
   Bfn.  Coefficient  Atom+Function         Bfn.  Coefficient  Atom+Function  
  ----- ------------  ---------------      ----- ------------  ---------------
    29      4.712850   2 C  py               21     -3.413954   2 C  s         
     6      3.134423   1 C  s                51     -2.773418   5 H  s         
    14     -2.540693   1 C  py               28      2.491884   2 C  px        
    13      1.950498   1 C  px               72      1.939989   8 H  s         
    68      1.886119   7 C  py               67      1.782729   7 C  px        
 
 Vector   45  Occ=0.000000D+00  E= 3.835207D-01
              MO Center=  1.1D-01,  8.5D-01,  3.8D-03, r^2= 5.8D+00
   Bfn.  Coefficient  Atom+Function         Bfn.  Coefficient  Atom+Function  
  ----- ------------  ---------------      ----- ------------  ---------------
     6      7.848583   1 C  s                21     -5.448794   2 C  s         
    29     -3.561708   2 C  py               14      2.720086   1 C  py        
    28      2.398422   2 C  px               54     -1.864207   6 H  s         
    60      1.708320   7 C  s                51      1.639645   5 H  s         
    20      1.592111   2 C  s                 5     -1.564604   1 C  s         
 
 Vector   46  Occ=0.000000D+00  E= 4.515003D-01
              MO Center= -9.6D-02, -5.9D-01, -1.0D-03, r^2= 5.4D+00
   Bfn.  Coefficient  Atom+Function         Bfn.  Coefficient  Atom+Function  
  ----- ------------  ---------------      ----- ------------  ---------------
    60      6.753129   7 C  s                14      5.063040   1 C  py        
    21      4.122420   2 C  s                 6     -3.898491   1 C  s         
    33     -3.128520   3 H  s                13     -2.742970   1 C  px        
    29     -2.395389   2 C  py               47      2.224684   4 O  py        
    59     -1.943656   7 C  s                68      1.904712   7 C  py        
 
 Vector   47  Occ=0.000000D+00  E= 5.090094D-01
              MO Center= -1.1D+00,  4.5D-01,  1.2D-01, r^2= 4.3D+00
   Bfn.  Coefficient  Atom+Function         Bfn.  Coefficient  Atom+Function  
  ----- ------------  ---------------      ----- ------------  ---------------
    21      7.322507   2 C  s                13     -5.978438   1 C  px        
    47     -3.904029   4 O  py                6     -3.362606   1 C  s         
    60     -3.037421   7 C  s                28     -2.541085   2 C  px        
    33     -2.189691   3 H  s                46      1.969521   4 O  px        
     5      1.046653   1 C  s                20     -0.990119   2 C  s         
 
 Vector   48  Occ=0.000000D+00  E= 9.227228D-01
              MO Center= -6.1D-01, -1.4D-01,  5.8D-02, r^2= 3.2D+00
   Bfn.  Coefficient  Atom+Function         Bfn.  Coefficient  Atom+Function  
  ----- ------------  ---------------      ----- ------------  ---------------
    39      6.458170   4 O  s                60     -3.222542   7 C  s         
    29     -3.174410   2 C  py               38     -3.105041   4 O  s         
     6     -3.011308   1 C  s                14      2.828554   1 C  py        
    21      2.768103   2 C  s                13     -2.107766   1 C  px        
    51      1.902213   5 H  s                33     -1.831645   3 H  s         
 
 Vector   49  Occ=0.000000D+00  E= 1.080318D+00
              MO Center=  4.3D-01,  9.9D-01, -2.6D-02, r^2= 2.0D+00
   Bfn.  Coefficient  Atom+Function         Bfn.  Coefficient  Atom+Function  
  ----- ------------  ---------------      ----- ------------  ---------------
    12      1.138715   1 C  pz               27      1.021242   2 C  pz        
     9     -0.921674   1 C  pz               24     -0.855570   2 C  pz        
    15     -0.527733   1 C  pz               30     -0.444477   2 C  pz        
    66      0.245990   7 C  pz               75      0.235591   9 H  s         
    78     -0.235440  10 H  s                69     -0.196820   7 C  pz        
 
 Vector   50  Occ=0.000000D+00  E= 1.124564D+00
              MO Center=  1.8D-01,  4.1D-01, -1.1D-02, r^2= 3.4D+00
   Bfn.  Coefficient  Atom+Function         Bfn.  Coefficient  Atom+Function  
  ----- ------------  ---------------      ----- ------------  ---------------
    10      2.110966   1 C  px               25      2.075702   2 C  px        
    28     -1.194560   2 C  px               21     -1.071488   2 C  s         
    51      0.876302   5 H  s                 5      0.848087   1 C  s         
    20     -0.834875   2 C  s                38      0.815849   4 O  s         
     7     -0.745797   1 C  px               22     -0.743939   2 C  px        
 
 Vector   51  Occ=0.000000D+00  E= 1.140950D+00
              MO Center=  5.2D-01,  8.0D-01, -3.8D-02, r^2= 2.8D+00
   Bfn.  Coefficient  Atom+Function         Bfn.  Coefficient  Atom+Function  
  ----- ------------  ---------------      ----- ------------  ---------------
    27      1.475500   2 C  pz               12     -1.325674   1 C  pz        
    30     -0.957800   2 C  pz               24     -0.907290   2 C  pz        
    15      0.869710   1 C  pz                9      0.778527   1 C  pz        
    66     -0.617800   7 C  pz               63      0.370225   7 C  pz        
    69      0.186507   7 C  pz               74      0.171941   9 H  s         
 
 Vector   52  Occ=0.000000D+00  E= 1.144432D+00
              MO Center=  2.3D-01, -6.8D-02, -2.4D-02, r^2= 3.5D+00
   Bfn.  Coefficient  Atom+Function         Bfn.  Coefficient  Atom+Function  
  ----- ------------  ---------------      ----- ------------  ---------------
    65      1.640207   7 C  py               11     -1.459438   1 C  py        
    33     -1.240032   3 H  s                72     -1.155241   8 H  s         
    68     -1.077520   7 C  py               14      0.991368   1 C  py        
    54      0.932885   6 H  s                62     -0.787170   7 C  py        
     6      0.773317   1 C  s                10      0.766041   1 C  px        
 
 Vector   53  Occ=0.000000D+00  E= 1.212481D+00
              MO Center=  4.0D-01,  7.0D-01, -2.9D-02, r^2= 3.4D+00
   Bfn.  Coefficient  Atom+Function         Bfn.  Coefficient  Atom+Function  
  ----- ------------  ---------------      ----- ------------  ---------------
    25     -1.202984   2 C  px               10      1.193819   1 C  px        
    65      1.049182   7 C  py               72     -0.976573   8 H  s         
    68     -0.952045   7 C  py               29     -0.868365   2 C  py        
    22      0.799299   2 C  px               28      0.776316   2 C  px        
    54     -0.776799   6 H  s                 7     -0.689816   1 C  px        
 
 Vector   54  Occ=0.000000D+00  E= 1.213229D+00
              MO Center= -3.2D-01, -1.2D+00,  1.2D-02, r^2= 2.2D+00
   Bfn.  Coefficient  Atom+Function         Bfn.  Coefficient  Atom+Function  
  ----- ------------  ---------------      ----- ------------  ---------------
    66      2.181618   7 C  pz               69     -1.717340   7 C  pz        
    63     -1.223712   7 C  pz               78     -1.224727  10 H  s         
    75      1.217780   9 H  s                74     -0.642775   9 H  s         
    77      0.643952  10 H  s                12     -0.585236   1 C  pz        
    15      0.540716   1 C  pz               30     -0.367167   2 C  pz        
 
 Vector   55  Occ=0.000000D+00  E= 1.243344D+00
              MO Center=  1.3D-01, -8.2D-01, -2.8D-02, r^2= 3.5D+00
   Bfn.  Coefficient  Atom+Function         Bfn.  Coefficient  Atom+Function  
  ----- ------------  ---------------      ----- ------------  ---------------
    60      2.070988   7 C  s                64     -1.949554   7 C  px        
    21     -1.838109   2 C  s                25      1.436531   2 C  px        
    14     -1.280021   1 C  py               67      1.152030   7 C  px        
    13      1.073224   1 C  px               39     -1.057574   4 O  s         
    65      1.048065   7 C  py               33      0.986388   3 H  s         
 
 Vector   56  Occ=0.000000D+00  E= 1.372025D+00
              MO Center=  3.4D-01, -6.5D-02, -3.5D-02, r^2= 3.5D+00
   Bfn.  Coefficient  Atom+Function         Bfn.  Coefficient  Atom+Function  
  ----- ------------  ---------------      ----- ------------  ---------------
    72      1.728033   8 H  s                29      1.691619   2 C  py        
    51     -1.550789   5 H  s                26     -1.539243   2 C  py        
    68      1.483913   7 C  py               64     -1.328950   7 C  px        
    67      1.314901   7 C  px               10      1.297555   1 C  px        
    65     -1.019480   7 C  py               23      0.760832   2 C  py        
 
 Vector   57  Occ=0.000000D+00  E= 1.473355D+00
              MO Center=  3.8D-01,  7.5D-01, -2.5D-02, r^2= 3.2D+00
   Bfn.  Coefficient  Atom+Function         Bfn.  Coefficient  Atom+Function  
  ----- ------------  ---------------      ----- ------------  ---------------
    11      2.417095   1 C  py               26     -2.279796   2 C  py        
    29      1.965722   2 C  py               14     -1.839725   1 C  py        
    54      1.607856   6 H  s                33      1.535176   3 H  s         
    51     -1.494569   5 H  s                32     -1.191068   3 H  s         
     6     -1.100301   1 C  s                50      1.073426   5 H  s         
 
 Vector   58  Occ=0.000000D+00  E= 1.875316D+00
              MO Center=  5.9D-01,  1.8D-01, -5.6D-02, r^2= 5.3D+00
   Bfn.  Coefficient  Atom+Function         Bfn.  Coefficient  Atom+Function  
  ----- ------------  ---------------      ----- ------------  ---------------
    20     -1.964089   2 C  s                 5      1.791920   1 C  s         
    59     -1.669417   7 C  s                58      1.346814   7 C  s         
    19      1.325778   2 C  s                 4     -1.311809   1 C  s         
    50      1.100688   5 H  s                53      1.105466   6 H  s         
    71      1.064827   8 H  s                21      0.934847   2 C  s         
 
 Vector   59  Occ=0.000000D+00  E= 1.895684D+00
              MO Center=  4.0D-01, -8.5D-01, -5.6D-02, r^2= 4.9D+00
   Bfn.  Coefficient  Atom+Function         Bfn.  Coefficient  Atom+Function  
  ----- ------------  ---------------      ----- ------------  ---------------
    59      2.271056   7 C  s                58     -1.612696   7 C  s         
    71     -1.386826   8 H  s                20     -1.314412   2 C  s         
    53      1.069028   6 H  s                74     -0.975234   9 H  s         
    77     -0.975938  10 H  s                19      0.921523   2 C  s         
     5      0.888865   1 C  s                54     -0.867958   6 H  s         
 
 Vector   60  Occ=0.000000D+00  E= 2.004122D+00
              MO Center= -2.4D-01,  1.4D+00,  5.0D-02, r^2= 2.7D+00
   Bfn.  Coefficient  Atom+Function         Bfn.  Coefficient  Atom+Function  
  ----- ------------  ---------------      ----- ------------  ---------------
     5      2.813170   1 C  s                 4     -2.135928   1 C  s         
    32     -1.774230   3 H  s                 6     -1.667683   1 C  s         
    14      1.411431   1 C  py               31      1.061392   3 H  s         
    20      0.960693   2 C  s                29     -0.922740   2 C  py        
    19     -0.917102   2 C  s                50     -0.844365   5 H  s         
 
 Vector   61  Occ=0.000000D+00  E= 2.042658D+00
              MO Center=  5.1D-01, -1.6D+00, -8.0D-02, r^2= 2.0D+00
   Bfn.  Coefficient  Atom+Function         Bfn.  Coefficient  Atom+Function  
  ----- ------------  ---------------      ----- ------------  ---------------
    74      1.655862   9 H  s                77     -1.655740  10 H  s         
    75     -1.126950   9 H  s                78      1.126778  10 H  s         
    73     -1.117196   9 H  s                76      1.117047  10 H  s         
    66     -0.310203   7 C  pz               69      0.306351   7 C  pz        
    45      0.235733   4 O  pz               42     -0.141063   4 O  pz        
 
 Vector   62  Occ=0.000000D+00  E= 2.071085D+00
              MO Center=  5.1D-01, -7.7D-03, -5.2D-02, r^2= 5.1D+00
   Bfn.  Coefficient  Atom+Function         Bfn.  Coefficient  Atom+Function  
  ----- ------------  ---------------      ----- ------------  ---------------
     5      1.883500   1 C  s                20      1.687129   2 C  s         
     4     -1.497840   1 C  s                21     -1.432848   2 C  s         
    19     -1.387260   2 C  s                 6     -1.169635   1 C  s         
    59      0.943801   7 C  s                71      0.898982   8 H  s         
    53     -0.864550   6 H  s                50      0.769935   5 H  s         
 
 Vector   63  Occ=0.000000D+00  E= 2.138413D+00
              MO Center=  8.1D-01,  4.4D-01, -7.4D-02, r^2= 3.1D+00
   Bfn.  Coefficient  Atom+Function         Bfn.  Coefficient  Atom+Function  
  ----- ------------  ---------------      ----- ------------  ---------------
    20      2.994165   2 C  s                21     -2.439133   2 C  s         
    19     -2.306937   2 C  s                29      2.087145   2 C  py        
    14     -1.901603   1 C  py               59     -1.661330   7 C  s         
    58      1.392361   7 C  s                53      1.257358   6 H  s         
    33      0.997093   3 H  s                52     -0.939634   6 H  s         
 
 Vector   64  Occ=0.000000D+00  E= 2.164694D+00
              MO Center=  1.6D-01, -7.9D-01, -3.0D-02, r^2= 5.0D+00
   Bfn.  Coefficient  Atom+Function         Bfn.  Coefficient  Atom+Function  
  ----- ------------  ---------------      ----- ------------  ---------------
     5      1.615864   1 C  s                 4     -1.321703   1 C  s         
    71     -1.282251   8 H  s                20      1.194954   2 C  s         
     6     -1.148063   1 C  s                54      1.074871   6 H  s         
    19     -0.970020   2 C  s                70      0.968334   8 H  s         
    74      0.965618   9 H  s                77      0.965448  10 H  s         
 
 Vector   65  Occ=0.000000D+00  E= 2.267057D+00
              MO Center= -9.0D-01, -2.5D-01,  8.7D-02, r^2= 1.2D+00
   Bfn.  Coefficient  Atom+Function         Bfn.  Coefficient  Atom+Function  
  ----- ------------  ---------------      ----- ------------  ---------------
    45      1.802508   4 O  pz               48     -1.226948   4 O  pz        
    42     -1.189044   4 O  pz               69      0.769601   7 C  pz        
    15      0.454229   1 C  pz               75     -0.405104   9 H  s         
    78      0.404794  10 H  s                66     -0.330886   7 C  pz        
    30     -0.185098   2 C  pz               12     -0.183530   1 C  pz        
 
 Vector   66  Occ=0.000000D+00  E= 2.305985D+00
              MO Center= -1.2D-01,  1.1D+00,  3.2D-02, r^2= 2.6D+00
   Bfn.  Coefficient  Atom+Function         Bfn.  Coefficient  Atom+Function  
  ----- ------------  ---------------      ----- ------------  ---------------
     6      3.996615   1 C  s                 5     -3.154228   1 C  s         
    21     -2.748742   2 C  s                 4      2.278433   1 C  s         
    20      1.967593   2 C  s                14      1.569668   1 C  py        
    29     -1.566011   2 C  py               19     -1.389477   2 C  s         
    32     -1.013261   3 H  s                28      0.960206   2 C  px        
 
 Vector   67  Occ=0.000000D+00  E= 2.387916D+00
              MO Center= -3.8D-01, -4.3D-01,  3.1D-02, r^2= 2.7D+00
   Bfn.  Coefficient  Atom+Function         Bfn.  Coefficient  Atom+Function  
  ----- ------------  ---------------      ----- ------------  ---------------
    60      2.665997   7 C  s                 6      2.467975   1 C  s         
    59     -2.475462   7 C  s                21     -1.986389   2 C  s         
    58      1.847834   7 C  s                 5     -1.493652   1 C  s         
    20      1.418327   2 C  s                43      1.262092   4 O  px        
    28      1.088064   2 C  px               14      0.903722   1 C  py        
 
 Vector   68  Occ=0.000000D+00  E= 2.496056D+00
              MO Center=  9.0D-02, -3.8D-01, -1.6D-02, r^2= 3.2D+00
   Bfn.  Coefficient  Atom+Function         Bfn.  Coefficient  Atom+Function  
  ----- ------------  ---------------      ----- ------------  ---------------
    21      4.521916   2 C  s                60      3.064028   7 C  s         
     6     -2.992554   1 C  s                59     -2.923450   7 C  s         
    20     -2.672235   2 C  s                13     -2.572272   1 C  px        
    58      2.155714   7 C  s                14      1.858894   1 C  py        
    19      1.806202   2 C  s                33     -1.742712   3 H  s         
 
 Vector   69  Occ=0.000000D+00  E= 2.570861D+00
              MO Center= -6.7D-01, -5.1D-01,  5.8D-02, r^2= 2.0D+00
   Bfn.  Coefficient  Atom+Function         Bfn.  Coefficient  Atom+Function  
  ----- ------------  ---------------      ----- ------------  ---------------
    60      4.022614   7 C  s                59     -2.333617   7 C  s         
    47      2.237682   4 O  py               44     -1.873846   4 O  py        
    58      1.544705   7 C  s                21     -1.355853   2 C  s         
    13      1.287977   1 C  px               41      1.068349   4 O  py        
    14      1.046555   1 C  py               74     -0.719496   9 H  s         
 
 Vector   70  Occ=0.000000D+00  E= 4.298200D+00
              MO Center= -9.0D-01, -2.1D-01,  8.7D-02, r^2= 9.1D-01
   Bfn.  Coefficient  Atom+Function         Bfn.  Coefficient  Atom+Function  
  ----- ------------  ---------------      ----- ------------  ---------------
    38      5.128458   4 O  s                39     -4.022810   4 O  s         
    37     -3.920425   4 O  s                14     -1.448185   1 C  py        
     6      1.426599   1 C  s                29      1.416466   2 C  py        
    60      1.390806   7 C  s                21     -1.174131   2 C  s         
    36      0.819852   4 O  s                51     -0.730992   5 H  s         
 
 Vector   71  Occ=0.000000D+00  E= 1.110730D+01
              MO Center=  4.3D-01,  1.0D+00, -2.6D-02, r^2= 8.0D-01
   Bfn.  Coefficient  Atom+Function         Bfn.  Coefficient  Atom+Function  
  ----- ------------  ---------------      ----- ------------  ---------------
     3      2.390740   1 C  s                 4     -2.372762   1 C  s         
    18      2.165452   2 C  s                19     -2.142821   2 C  s         
     5      1.889285   1 C  s                20      1.703172   2 C  s         
     2     -1.265404   1 C  s                17     -1.148241   2 C  s         
    21     -0.906462   2 C  s                 6     -0.860502   1 C  s         
 
 Vector   72  Occ=0.000000D+00  E= 1.138042D+01
              MO Center= -1.4D-01, -1.3D+00, -9.6D-03, r^2= 8.3D-01
   Bfn.  Coefficient  Atom+Function         Bfn.  Coefficient  Atom+Function  
  ----- ------------  ---------------      ----- ------------  ---------------
    58     -3.240152   7 C  s                57      3.153541   7 C  s         
    59      2.801788   7 C  s                60     -1.796313   7 C  s         
    56     -1.652870   7 C  s                 4     -0.670764   1 C  s         
     3      0.647510   1 C  s                 5      0.603348   1 C  s         
    19      0.603841   2 C  s                18     -0.600237   2 C  s         
 
 Vector   73  Occ=0.000000D+00  E= 1.149959D+01
              MO Center=  5.2D-01,  8.3D-01, -3.7D-02, r^2= 1.2D+00
   Bfn.  Coefficient  Atom+Function         Bfn.  Coefficient  Atom+Function  
  ----- ------------  ---------------      ----- ------------  ---------------
    19     -2.464920   2 C  s                18      2.364603   2 C  s         
    20      2.284525   2 C  s                 4      2.217151   1 C  s         
    21     -2.193150   2 C  s                 3     -2.121260   1 C  s         
     5     -2.077208   1 C  s                 6      1.942575   1 C  s         
    17     -1.233802   2 C  s                 2      1.105281   1 C  s         
 
 Vector   74  Occ=0.000000D+00  E= 2.158765D+01
              MO Center= -9.2D-01, -2.2D-01,  8.9D-02, r^2= 2.0D-01
   Bfn.  Coefficient  Atom+Function         Bfn.  Coefficient  Atom+Function  
  ----- ------------  ---------------      ----- ------------  ---------------
    36      3.321771   4 O  s                37     -3.221079   4 O  s         
    38      2.606566   4 O  s                35     -1.741774   4 O  s         
    39     -1.672660   4 O  s                14     -0.591955   1 C  py        
    29      0.561507   2 C  py                6      0.556695   1 C  s         
    60      0.522219   7 C  s                21     -0.466520   2 C  s         
 
 Vector   75  Occ=0.000000D+00  E= 6.205728D+01
              MO Center=  4.2D-01,  9.9D-01, -2.4D-02, r^2= 5.3D-01
   Bfn.  Coefficient  Atom+Function         Bfn.  Coefficient  Atom+Function  
  ----- ------------  ---------------      ----- ------------  ---------------
     2      2.187174   1 C  s                17      1.938937   2 C  s         
     3     -1.645848   1 C  s                18     -1.455393   2 C  s         
     1     -1.300525   1 C  s                16     -1.154379   2 C  s         
     4      1.058647   1 C  s                19      0.931374   2 C  s         
     5     -0.800877   1 C  s                20     -0.699876   2 C  s         
 
 Vector   76  Occ=0.000000D+00  E= 6.232368D+01
              MO Center= -1.5D-01, -1.3D+00, -8.7D-03, r^2= 4.4D-01
   Bfn.  Coefficient  Atom+Function         Bfn.  Coefficient  Atom+Function  
  ----- ------------  ---------------      ----- ------------  ---------------
    56      2.863724   7 C  s                57     -2.180487   7 C  s         
    55     -1.693677   7 C  s                58      1.455319   7 C  s         
    59     -1.192504   7 C  s                60      0.762950   7 C  s         
     2      0.525850   1 C  s                17     -0.451208   2 C  s         
     3     -0.401583   1 C  s                18      0.342391   2 C  s         
 
 Vector   77  Occ=0.000000D+00  E= 6.244125D+01
              MO Center=  5.4D-01,  8.7D-01, -3.9D-02, r^2= 8.4D-01
   Bfn.  Coefficient  Atom+Function         Bfn.  Coefficient  Atom+Function  
  ----- ------------  ---------------      ----- ------------  ---------------
    17      2.166478   2 C  s                 2     -1.896523   1 C  s         
    18     -1.660213   2 C  s                 3      1.456522   1 C  s         
    16     -1.277019   2 C  s                19      1.125985   2 C  s         
     1      1.116557   1 C  s                 4     -0.992836   1 C  s         
    20     -0.986552   2 C  s                21      0.937374   2 C  s         
 
 Vector   78  Occ=0.000000D+00  E= 1.175284D+02
              MO Center= -9.2D-01, -2.2D-01,  8.9D-02, r^2= 4.5D-02
   Bfn.  Coefficient  Atom+Function         Bfn.  Coefficient  Atom+Function  
  ----- ------------  ---------------      ----- ------------  ---------------
    35      2.969400   4 O  s                36     -2.273171   4 O  s         
    34     -1.756168   4 O  s                37      1.436447   4 O  s         
    38     -1.098046   4 O  s                39      0.708298   4 O  s         
    14      0.252587   1 C  py                6     -0.242182   1 C  s         
    29     -0.239951   2 C  py               60     -0.227464   7 C  s         
 
 
                     DFT Final Beta Molecular Orbital Analysis
                     -----------------------------------------
 
 Vector    1  Occ=1.000000D+00  E=-1.909673D+01
              MO Center= -9.2D-01, -2.2D-01,  8.9D-02, r^2= 1.5D-02
   Bfn.  Coefficient  Atom+Function         Bfn.  Coefficient  Atom+Function  
  ----- ------------  ---------------      ----- ------------  ---------------
    35      0.424844   4 O  s                36      0.366126   4 O  s         
    34      0.299572   4 O  s                37      0.054948   4 O  s         
 
 Vector    2  Occ=1.000000D+00  E=-1.023110D+01
              MO Center= -1.7D-01,  9.4D-01,  3.4D-02, r^2= 2.8D-02
   Bfn.  Coefficient  Atom+Function         Bfn.  Coefficient  Atom+Function  
  ----- ------------  ---------------      ----- ------------  ---------------
     2      0.424181   1 C  s                 3      0.359668   1 C  s         
     1      0.308800   1 C  s                 4      0.057060   1 C  s         
 
 Vector    3  Occ=1.000000D+00  E=-1.017670D+01
              MO Center=  1.2D+00,  1.1D+00, -9.8D-02, r^2= 2.8D-02
   Bfn.  Coefficient  Atom+Function         Bfn.  Coefficient  Atom+Function  
  ----- ------------  ---------------      ----- ------------  ---------------
    17      0.424253   2 C  s                18      0.359631   2 C  s         
    16      0.308859   2 C  s                19      0.056868   2 C  s         
 
 Vector    4  Occ=1.000000D+00  E=-1.016470D+01
              MO Center= -1.8D-01, -1.5D+00, -7.9D-03, r^2= 2.8D-02
   Bfn.  Coefficient  Atom+Function         Bfn.  Coefficient  Atom+Function  
  ----- ------------  ---------------      ----- ------------  ---------------
    56      0.424240   7 C  s                57      0.359556   7 C  s         
    55      0.308834   7 C  s                58      0.057189   7 C  s         
 
 Vector    5  Occ=1.000000D+00  E=-1.246954D+00
              MO Center= -6.6D-01, -1.6D-01,  6.4D-02, r^2= 6.3D-01
   Bfn.  Coefficient  Atom+Function         Bfn.  Coefficient  Atom+Function  
  ----- ------------  ---------------      ----- ------------  ---------------
    38      0.508893   4 O  s                39      0.271449   4 O  s         
     5      0.177234   1 C  s                36     -0.141121   4 O  s         
    59      0.128848   7 C  s                35     -0.117676   4 O  s         
    37      0.114547   4 O  s                43      0.097899   4 O  px        
    40      0.092044   4 O  px                8     -0.079415   1 C  py        
 
 Vector    6  Occ=1.000000D+00  E=-9.643285D-01
              MO Center=  3.3D-01,  7.4D-01, -2.0D-02, r^2= 1.6D+00
   Bfn.  Coefficient  Atom+Function         Bfn.  Coefficient  Atom+Function  
  ----- ------------  ---------------      ----- ------------  ---------------
     5      0.380687   1 C  s                20      0.356620   2 C  s         
    59     -0.169967   7 C  s                38     -0.124794   4 O  s         
     3     -0.107197   1 C  s                18     -0.106466   2 C  s         
    41      0.105432   4 O  py                7      0.103084   1 C  px        
    22     -0.099029   2 C  px               39     -0.085991   4 O  s         
 
 Vector    7  Occ=1.000000D+00  E=-8.872596D-01
              MO Center= -1.3D-01, -4.9D-01,  4.1D-03, r^2= 2.4D+00
   Bfn.  Coefficient  Atom+Function         Bfn.  Coefficient  Atom+Function  
  ----- ------------  ---------------      ----- ------------  ---------------
    59      0.407864   7 C  s                20      0.217802   2 C  s         
    41     -0.207876   4 O  py               60      0.185178   7 C  s         
    44     -0.172101   4 O  py                7      0.149230   1 C  px        
    10      0.115024   1 C  px               57     -0.104984   7 C  s         
    38     -0.100741   4 O  s                 5     -0.088699   1 C  s         
 
 Vector    8  Occ=1.000000D+00  E=-7.598916D-01
              MO Center=  2.0D-01, -8.8D-02, -2.2D-02, r^2= 3.5D+00
   Bfn.  Coefficient  Atom+Function         Bfn.  Coefficient  Atom+Function  
  ----- ------------  ---------------      ----- ------------  ---------------
     5      0.281545   1 C  s                59      0.264656   7 C  s         
    20     -0.241261   2 C  s                38     -0.163905   4 O  s         
    39     -0.161071   4 O  s                41      0.123421   4 O  py        
    60      0.115691   7 C  s                44      0.107016   4 O  py        
    22     -0.102816   2 C  px               62     -0.102606   7 C  py        
 
 Vector    9  Occ=1.000000D+00  E=-7.136004D-01
              MO Center=  4.8D-02,  3.0D-01,  5.7D-04, r^2= 2.6D+00
   Bfn.  Coefficient  Atom+Function         Bfn.  Coefficient  Atom+Function  
  ----- ------------  ---------------      ----- ------------  ---------------
     8      0.232720   1 C  py               11      0.197537   1 C  py        
    41     -0.185820   4 O  py               23      0.167660   2 C  py        
    44     -0.158085   4 O  py               61     -0.138531   7 C  px        
    40     -0.135798   4 O  px               26      0.131344   2 C  py        
    64     -0.131683   7 C  px               43     -0.106637   4 O  px        
 
 Vector   10  Occ=1.000000D+00  E=-6.884170D-01
              MO Center=  5.8D-01,  6.3D-01, -4.7D-02, r^2= 2.8D+00
   Bfn.  Coefficient  Atom+Function         Bfn.  Coefficient  Atom+Function  
  ----- ------------  ---------------      ----- ------------  ---------------
    22      0.260317   2 C  px                7     -0.222323   1 C  px        
    10     -0.193387   1 C  px               20      0.172166   2 C  s         
    25      0.148390   2 C  px               41      0.133636   4 O  py        
    40     -0.126763   4 O  px               50      0.122349   5 H  s         
    44      0.118790   4 O  py               62     -0.113386   7 C  py        
 
 Vector   11  Occ=1.000000D+00  E=-6.483711D-01
              MO Center= -3.4D-01, -7.0D-01,  2.2D-02, r^2= 1.8D+00
   Bfn.  Coefficient  Atom+Function         Bfn.  Coefficient  Atom+Function  
  ----- ------------  ---------------      ----- ------------  ---------------
    42      0.282608   4 O  pz               45      0.243437   4 O  pz        
    63      0.241705   7 C  pz               66      0.229610   7 C  pz        
     9      0.134623   1 C  pz               12      0.131763   1 C  pz        
    48      0.131790   4 O  pz               74      0.098330   9 H  s         
    77     -0.098351  10 H  s                73      0.093457   9 H  s         
 
 Vector   12  Occ=1.000000D+00  E=-6.081996D-01
              MO Center=  3.4D-01, -1.1D-02, -3.5D-02, r^2= 3.8D+00
   Bfn.  Coefficient  Atom+Function         Bfn.  Coefficient  Atom+Function  
  ----- ------------  ---------------      ----- ------------  ---------------
    23      0.253028   2 C  py               26      0.218225   2 C  py        
    40      0.202092   4 O  px               43      0.181791   4 O  px        
    50      0.157901   5 H  s                61      0.152102   7 C  px        
    62      0.150597   7 C  py               64      0.145855   7 C  px        
    65      0.128413   7 C  py               49      0.124182   5 H  s         
 
 Vector   13  Occ=1.000000D+00  E=-5.883570D-01
              MO Center=  1.7D-02,  2.8D-01,  3.3D-03, r^2= 3.6D+00
   Bfn.  Coefficient  Atom+Function         Bfn.  Coefficient  Atom+Function  
  ----- ------------  ---------------      ----- ------------  ---------------
    32      0.187134   3 H  s                62      0.186204   7 C  py        
     8      0.172980   1 C  py               65      0.170871   7 C  py        
    41     -0.162985   4 O  py               23     -0.154647   2 C  py        
    11      0.150057   1 C  py               26     -0.148459   2 C  py        
    44     -0.148840   4 O  py                7     -0.142078   1 C  px        
 
 Vector   14  Occ=1.000000D+00  E=-5.494263D-01
              MO Center= -5.2D-02, -4.0D-01, -2.0D-03, r^2= 2.6D+00
   Bfn.  Coefficient  Atom+Function         Bfn.  Coefficient  Atom+Function  
  ----- ------------  ---------------      ----- ------------  ---------------
    63     -0.240520   7 C  pz                9      0.237150   1 C  pz        
    12      0.233888   1 C  pz               42      0.206599   4 O  pz        
    66     -0.199811   7 C  pz               45      0.179902   4 O  pz        
    74     -0.159440   9 H  s                77      0.159444  10 H  s         
    24      0.128154   2 C  pz               48      0.110881   4 O  pz        
 
 Vector   15  Occ=1.000000D+00  E=-5.394865D-01
              MO Center= -5.9D-01, -7.1D-01,  4.7D-02, r^2= 2.1D+00
   Bfn.  Coefficient  Atom+Function         Bfn.  Coefficient  Atom+Function  
  ----- ------------  ---------------      ----- ------------  ---------------
    40      0.328435   4 O  px               43      0.274886   4 O  px        
    61     -0.238300   7 C  px               64     -0.191556   7 C  px        
    39     -0.165091   4 O  s                46      0.163680   4 O  px        
    38     -0.152541   4 O  s                71      0.153014   8 H  s         
     7     -0.126108   1 C  px               25      0.120416   2 C  px        
 
 Vector   16  Occ=0.000000D+00  E=-4.562020D-01
              MO Center=  1.6D-01,  4.3D-01, -8.5D-03, r^2= 2.4D+00
   Bfn.  Coefficient  Atom+Function         Bfn.  Coefficient  Atom+Function  
  ----- ------------  ---------------      ----- ------------  ---------------
    42      0.320197   4 O  pz               27     -0.280374   2 C  pz        
    45      0.279302   4 O  pz               24     -0.276657   2 C  pz        
    48      0.217595   4 O  pz                9     -0.192081   1 C  pz        
    12     -0.187331   1 C  pz               30     -0.141976   2 C  pz        
    74     -0.095722   9 H  s                77      0.095755  10 H  s         
 
 Vector   17  Occ=0.000000D+00  E=-2.588583D-01
              MO Center=  4.6D-01,  9.3D-01, -3.0D-02, r^2= 2.1D+00
   Bfn.  Coefficient  Atom+Function         Bfn.  Coefficient  Atom+Function  
  ----- ------------  ---------------      ----- ------------  ---------------
    30      0.465679   2 C  pz               15     -0.442608   1 C  pz        
    12     -0.413034   1 C  pz               27      0.362785   2 C  pz        
     9     -0.355133   1 C  pz               24      0.318901   2 C  pz        
    48      0.189715   4 O  pz               42      0.170978   4 O  pz        
    45      0.139887   4 O  pz               74     -0.063175   9 H  s         
 
 Vector   18  Occ=0.000000D+00  E=-1.885284D-01
              MO Center= -6.3D-02, -4.0D-01, -8.3D-04, r^2= 3.7D+00
   Bfn.  Coefficient  Atom+Function         Bfn.  Coefficient  Atom+Function  
  ----- ------------  ---------------      ----- ------------  ---------------
    39      1.017595   4 O  s                51     -0.538417   5 H  s         
    54      0.511265   6 H  s                68     -0.504829   7 C  py        
    29      0.411196   2 C  py               65     -0.334868   7 C  py        
    67      0.305548   7 C  px               11      0.302771   1 C  py        
    43      0.263022   4 O  px               60     -0.260833   7 C  s         
 
 Vector   19  Occ=0.000000D+00  E=-1.573812D-01
[...]
   Bfn.  Coefficient  Atom+Function         Bfn.  Coefficient  Atom+Function  
  ----- ------------  ---------------      ----- ------------  ---------------
    74      1.655941   9 H  s                77     -1.655546  10 H  s         
    73     -1.119362   9 H  s                75     -1.120307   9 H  s         
    76      1.119079  10 H  s                78      1.120002  10 H  s         
    66     -0.305902   7 C  pz               69      0.295185   7 C  pz        
    45      0.208759   4 O  pz               42     -0.124361   4 O  pz        
 
 Vector   62  Occ=0.000000D+00  E= 2.075454D+00
              MO Center=  5.5D-01, -1.3D-01, -5.8D-02, r^2= 5.0D+00
   Bfn.  Coefficient  Atom+Function         Bfn.  Coefficient  Atom+Function  
  ----- ------------  ---------------      ----- ------------  ---------------
     5      1.975768   1 C  s                 4     -1.549771   1 C  s         
    20      1.426763   2 C  s                 6     -1.286764   1 C  s         
    19     -1.200031   2 C  s                59      1.153615   7 C  s         
    21     -1.114521   2 C  s                53     -0.986544   6 H  s         
    58     -0.915887   7 C  s                71      0.873330   8 H  s         
 
 Vector   63  Occ=0.000000D+00  E= 2.147657D+00
              MO Center=  8.3D-01,  4.2D-01, -7.6D-02, r^2= 3.4D+00
   Bfn.  Coefficient  Atom+Function         Bfn.  Coefficient  Atom+Function  
  ----- ------------  ---------------      ----- ------------  ---------------
    20      2.771912   2 C  s                29      2.236299   2 C  py        
    19     -2.147194   2 C  s                21     -2.128189   2 C  s         
    14     -1.861451   1 C  py               59     -1.376259   7 C  s         
    53      1.279839   6 H  s                58      1.160873   7 C  s         
    33      0.946700   3 H  s                52     -0.933683   6 H  s         
 
 Vector   64  Occ=0.000000D+00  E= 2.168881D+00
              MO Center=  8.2D-02, -6.6D-01, -2.0D-02, r^2= 4.9D+00
   Bfn.  Coefficient  Atom+Function         Bfn.  Coefficient  Atom+Function  
  ----- ------------  ---------------      ----- ------------  ---------------
     5      1.871148   1 C  s                20      1.785686   2 C  s         
     4     -1.538069   1 C  s                19     -1.437967   2 C  s         
     6     -1.329530   1 C  s                21     -1.290746   2 C  s         
    54      1.239968   6 H  s                71     -1.212758   8 H  s         
    59     -1.117519   7 C  s                28     -0.945490   2 C  px        
 
 Vector   65  Occ=0.000000D+00  E= 2.305560D+00
              MO Center= -9.1D-01, -2.5D-01,  8.7D-02, r^2= 1.1D+00
   Bfn.  Coefficient  Atom+Function         Bfn.  Coefficient  Atom+Function  
  ----- ------------  ---------------      ----- ------------  ---------------
    45      1.798424   4 O  pz               48     -1.216959   4 O  pz        
    42     -1.196220   4 O  pz               69      0.761851   7 C  pz        
    15      0.451732   1 C  pz               75     -0.413341   9 H  s         
    78      0.413085  10 H  s                66     -0.327008   7 C  pz        
    12     -0.183212   1 C  pz               30     -0.183424   2 C  pz        
 
 Vector   66  Occ=0.000000D+00  E= 2.312442D+00
              MO Center= -1.1D-01,  1.1D+00,  3.0D-02, r^2= 2.6D+00
   Bfn.  Coefficient  Atom+Function         Bfn.  Coefficient  Atom+Function  
  ----- ------------  ---------------      ----- ------------  ---------------
     6      3.922289   1 C  s                 5     -3.077626   1 C  s         
    21     -2.810543   2 C  s                 4      2.215045   1 C  s         
    20      2.111396   2 C  s                14      1.529021   1 C  py        
    29     -1.525254   2 C  py               19     -1.504660   2 C  s         
    32     -0.979964   3 H  s                28      0.929818   2 C  px        
 
 Vector   67  Occ=0.000000D+00  E= 2.394656D+00
              MO Center= -3.6D-01, -4.7D-01,  2.8D-02, r^2= 2.7D+00
   Bfn.  Coefficient  Atom+Function         Bfn.  Coefficient  Atom+Function  
  ----- ------------  ---------------      ----- ------------  ---------------
    60     -2.802640   7 C  s                59      2.593345   7 C  s         
     6     -2.354531   1 C  s                58     -1.933033   7 C  s         
    21      1.863110   2 C  s                 5      1.440548   1 C  s         
    20     -1.376242   2 C  s                43     -1.224413   4 O  px        
    28     -1.055775   2 C  px               14     -0.964880   1 C  py        
 
 Vector   68  Occ=0.000000D+00  E= 2.504263D+00
              MO Center=  1.2D-01, -3.4D-01, -1.8D-02, r^2= 3.3D+00
   Bfn.  Coefficient  Atom+Function         Bfn.  Coefficient  Atom+Function  
  ----- ------------  ---------------      ----- ------------  ---------------
    21      4.613408   2 C  s                 6     -3.079846   1 C  s         
    60      3.063423   7 C  s                59     -2.872360   7 C  s         
    20     -2.806856   2 C  s                13     -2.561991   1 C  px        
    58      2.111436   7 C  s                19      1.909370   2 C  s         
    14      1.853346   1 C  py               33     -1.739126   3 H  s         
 
 Vector   69  Occ=0.000000D+00  E= 2.578040D+00
              MO Center= -6.9D-01, -4.8D-01,  6.1D-02, r^2= 2.0D+00
   Bfn.  Coefficient  Atom+Function         Bfn.  Coefficient  Atom+Function  
  ----- ------------  ---------------      ----- ------------  ---------------
    60      3.913698   7 C  s                47      2.238877   4 O  py        
    59     -2.232363   7 C  s                44     -1.887751   4 O  py        
    58      1.469047   7 C  s                21     -1.452870   2 C  s         
    13      1.343758   1 C  px               41      1.081242   4 O  py        
    14      0.993117   1 C  py               20      0.721002   2 C  s         
 
 Vector   70  Occ=0.000000D+00  E= 4.319959D+00
              MO Center= -9.0D-01, -2.1D-01,  8.7D-02, r^2= 9.1D-01
   Bfn.  Coefficient  Atom+Function         Bfn.  Coefficient  Atom+Function  
  ----- ------------  ---------------      ----- ------------  ---------------
    38      5.120837   4 O  s                39     -4.011523   4 O  s         
    37     -3.919998   4 O  s                14     -1.444026   1 C  py        
     6      1.424343   1 C  s                29      1.412296   2 C  py        
    60      1.386015   7 C  s                21     -1.172607   2 C  s         
    36      0.820469   4 O  s                51     -0.728981   5 H  s         
 
 Vector   71  Occ=0.000000D+00  E= 1.111581D+01
              MO Center=  4.0D-01,  1.0D+00, -2.3D-02, r^2= 8.0D-01
   Bfn.  Coefficient  Atom+Function         Bfn.  Coefficient  Atom+Function  
  ----- ------------  ---------------      ----- ------------  ---------------
     3      2.434930   1 C  s                 4     -2.419316   1 C  s         
    18      2.116366   2 C  s                19     -2.092627   2 C  s         
     5      1.932845   1 C  s                20      1.656026   2 C  s         
     2     -1.288351   1 C  s                17     -1.122167   2 C  s         
     6     -0.899184   1 C  s                21     -0.862593   2 C  s         
 
 Vector   72  Occ=0.000000D+00  E= 1.138095D+01
              MO Center= -1.4D-01, -1.3D+00, -9.6D-03, r^2= 7.6D-01
   Bfn.  Coefficient  Atom+Function         Bfn.  Coefficient  Atom+Function  
  ----- ------------  ---------------      ----- ------------  ---------------
    58     -3.258894   7 C  s                57      3.171636   7 C  s         
    59      2.817975   7 C  s                60     -1.806068   7 C  s         
    56     -1.662298   7 C  s                 4     -0.609842   1 C  s         
     3      0.588393   1 C  s                18     -0.564968   2 C  s         
    19      0.566512   2 C  s                 5      0.548385   1 C  s         
 
 Vector   73  Occ=0.000000D+00  E= 1.150965D+01
              MO Center=  5.5D-01,  8.6D-01, -4.0D-02, r^2= 1.1D+00
   Bfn.  Coefficient  Atom+Function         Bfn.  Coefficient  Atom+Function  
  ----- ------------  ---------------      ----- ------------  ---------------
    19     -2.518511   2 C  s                18      2.417632   2 C  s         
    20      2.328057   2 C  s                21     -2.213911   2 C  s         
     4      2.184819   1 C  s                 3     -2.088072   1 C  s         
     5     -2.052742   1 C  s                 6      1.930773   1 C  s         
    17     -1.261379   2 C  s                 2      1.087591   1 C  s         
 
 Vector   74  Occ=0.000000D+00  E= 2.160746D+01
              MO Center= -9.2D-01, -2.2D-01,  8.9D-02, r^2= 2.0D-01
   Bfn.  Coefficient  Atom+Function         Bfn.  Coefficient  Atom+Function  
  ----- ------------  ---------------      ----- ------------  ---------------
    36      3.321627   4 O  s                37     -3.220632   4 O  s         
    38      2.605643   4 O  s                35     -1.741468   4 O  s         
    39     -1.671859   4 O  s                14     -0.591679   1 C  py        
    29      0.561235   2 C  py                6      0.556503   1 C  s         
    60      0.521908   7 C  s                21     -0.466396   2 C  s         
 
 Vector   75  Occ=0.000000D+00  E= 6.206152D+01
              MO Center=  4.0D-01,  9.9D-01, -2.3D-02, r^2= 5.2D-01
   Bfn.  Coefficient  Atom+Function         Bfn.  Coefficient  Atom+Function  
  ----- ------------  ---------------      ----- ------------  ---------------
     2      2.208267   1 C  s                17      1.915160   2 C  s         
     3     -1.662055   1 C  s                18     -1.437238   2 C  s         
     1     -1.312933   1 C  s                16     -1.140275   2 C  s         
     4      1.069701   1 C  s                19      0.919024   2 C  s         
     5     -0.810679   1 C  s                20     -0.688993   2 C  s         
 
 Vector   76  Occ=0.000000D+00  E= 6.232377D+01
              MO Center= -1.5D-01, -1.4D+00, -8.7D-03, r^2= 4.1D-01
   Bfn.  Coefficient  Atom+Function         Bfn.  Coefficient  Atom+Function  
  ----- ------------  ---------------      ----- ------------  ---------------
    56      2.870227   7 C  s                57     -2.185470   7 C  s         
    55     -1.697512   7 C  s                58      1.458667   7 C  s         
    59     -1.195224   7 C  s                60      0.764634   7 C  s         
     2      0.501919   1 C  s                17     -0.436844   2 C  s         
     3     -0.383307   1 C  s                18      0.331309   2 C  s         
 
 Vector   77  Occ=0.000000D+00  E= 6.244639D+01
              MO Center=  5.6D-01,  8.9D-01, -4.1D-02, r^2= 8.2D-01
   Bfn.  Coefficient  Atom+Function         Bfn.  Coefficient  Atom+Function  
  ----- ------------  ---------------      ----- ------------  ---------------
    17      2.190664   2 C  s                 2     -1.878514   1 C  s         
    18     -1.678475   2 C  s                 3      1.443033   1 C  s         
    16     -1.291303   2 C  s                19      1.137664   2 C  s         
     1      1.105818   1 C  s                20     -0.995529   2 C  s         
     4     -0.984281   1 C  s                21      0.941695   2 C  s         
 
 Vector   78  Occ=0.000000D+00  E= 1.175397D+02
              MO Center= -9.2D-01, -2.2D-01,  8.9D-02, r^2= 4.5D-02
   Bfn.  Coefficient  Atom+Function         Bfn.  Coefficient  Atom+Function  
  ----- ------------  ---------------      ----- ------------  ---------------
    35      2.969542   4 O  s                36     -2.273360   4 O  s         
    34     -1.756143   4 O  s                37      1.436476   4 O  s         
    38     -1.098017   4 O  s                39      0.708260   4 O  s         
    14      0.252575   1 C  py                6     -0.242175   1 C  s         
    29     -0.239939   2 C  py               60     -0.227446   7 C  s         
 

   alpha - beta orbital overlaps 
   ----------------------------- 


   alpha      1      2      3      4      5      6      7      8      9     10
    beta      1      2      3      4      5      6      7      8      9     10
 overlap   1.000  1.000  1.000  1.000  1.000  0.996  0.996  0.998  0.999  0.998


   alpha     11     12     13     14     15     16     17     18     19     20
    beta     11     12     13     14     15     16     17     18     19     20
 overlap   0.989  0.998  0.998  0.989  0.998  0.994  0.995  1.000  0.999  1.000


   alpha     21     22     23     24     25     26     27     28     29     30
    beta     21     22     23     24     25     26     27     28     29     30
 overlap   0.999  0.996  0.999  0.998  0.999  1.000  0.980  0.996  0.973  0.993


   alpha     31     32     33     34     35     36     37     38     39     40
    beta     31     32     33     34     35     36     37     38     39     40
 overlap   0.976  0.988  0.983  0.990  0.996  0.998  1.000  0.999  0.995  1.000


   alpha     41     42     43     44     45     46     47     48     49     50
    beta     41     42     43     44     45     46     47     48     49     50
 overlap   0.992  0.996  1.000  0.994  0.994  1.000  1.000  1.000  0.955  0.997


   alpha     51     52     53     54     55     56     57     58     59     60
    beta     52     51     54     53     55     56     57     58     59     60
 overlap   0.946  0.997  0.997  0.990  0.998  0.999  1.000  0.999  1.000  0.998


   alpha     61     62     63     64     65     66     67     68     69     70
    beta     61     62     63     64     65     66     67     68     69     70
 overlap   1.000  0.994  0.974  0.978  1.000  0.999  0.999  0.999  1.000  1.000


   alpha     71     72     73     74     75     76     77     78
    beta     71     72     73     74     75     76     77     78
 overlap   1.000  1.000  1.000  1.000  1.000  1.000  1.000  1.000

     --------------------------
     Expectation value of S2:  
     --------------------------
      <S2> =      0.7555 (Exact =     0.7500)
 

 center of mass
 --------------
 x =  -0.08232397 y =   0.04310878 z =   0.00906944

 moments of inertia (a.u.)
 ------------------
         253.103958807732         -80.204834201331          11.854331377594
         -80.204834201331         144.556275080148           3.782888578011
          11.854331377594           3.782888578011         383.756174079422
 
     Multipole analysis of the density
     ---------------------------------
 
     L   x y z        total         alpha         beta         nuclear
     -   - - -        -----         -----         ----         -------
     0   0 0 0      1.000000    -16.000000    -15.000000     32.000000
 
     1   1 0 0      0.916433      0.203856      0.712577      0.000000
     1   0 1 0      0.293933     -0.273106      0.567038      0.000000
     1   0 0 1     -0.087147     -0.025401     -0.061745      0.000000
 
     2   2 0 0    -13.771878    -50.418533    -46.458106     83.104761
     2   1 1 0      1.738606    -22.897081    -20.540693     45.176379
     2   1 0 1     -0.292935      3.435151      3.262025     -6.990111
     2   0 2 0     -7.615061    -82.554777    -79.250348    154.190064
     2   0 1 1     -0.007060      1.050244      0.839128     -1.896432
     2   0 0 2    -16.952914    -12.620886    -10.782082      6.450054
 

 Task  times  cpu:        3.5s     wall:        3.6s
 
 
                                NWChem Input Module
                                -------------------
 
 
 Summary of allocated global arrays
-----------------------------------
  No active global arrays



                         GA Statistics for process    0
                         ------------------------------

       create   destroy   get      put      acc     scatter   gather  read&inc
calls:  329      329     1.86e+04 2419     1.11e+04    0        0      398     
number of processes/call 1.14e+01 4.38e+01 7.87e+00 0.00e+00 0.00e+00
bytes total:             3.83e+07 5.40e+06 1.86e+07 0.00e+00 0.00e+00 3.18e+03
bytes remote:            3.04e+07 2.92e+06 1.57e+07 0.00e+00 0.00e+00 0.00e+00
Max memory consumed for GA by this process: 453600 bytes
 
 
 
                                     CITATION
                                     --------
                Please cite the following reference when publishing
                           results obtained with NWChem:
 
          E. Apr, E. J. Bylaska, W. A. de Jong, N. Govind, K. Kowalski,
       T. P. Straatsma, M. Valiev, H. J. J. van Dam, Y. Alexeev, J. Anchell,
       V. Anisimov, F. W. Aquino, R. Atta-Fynn, J. Autschbach, N. P. Bauman,
     J. C. Becca, D. E. Bernholdt, K. Bhaskaran-Nair, S. Bogatko, P. Borowski,
        J. Boschen, J. Brabec, A. Bruner, E. Caut, Y. Chen, G. N. Chuev,
      C. J. Cramer, J. Daily, M. J. O. Deegan, T. H. Dunning Jr., M. Dupuis,
   K. G. Dyall, G. I. Fann, S. A. Fischer, A. Fonari, H. Frchtl, L. Gagliardi,
      J. Garza, N. Gawande, S. Ghosh, K. Glaesemann, A. W. Gtz, J. Hammond,
       V. Helms, E. D. Hermes, K. Hirao, S. Hirata, M. Jacquelin, L. Jensen,
   B. G. Johnson, H. Jnsson, R. A. Kendall, M. Klemm, R. Kobayashi, V. Konkov,
      S. Krishnamoorthy, M. Krishnan, Z. Lin, R. D. Lins, R. J. Littlefield,
      A. J. Logsdail, K. Lopata, W. Ma, A. V. Marenich, J. Martin del Campo,
   D. Mejia-Rodriguez, J. E. Moore, J. M. Mullin, T. Nakajima, D. R. Nascimento,
    J. A. Nichols, P. J. Nichols, J. Nieplocha, A. Otero-de-la-Roza, B. Palmer,
    A. Panyala, T. Pirojsirikul, B. Peng, R. Peverati, J. Pittner, L. Pollack,
   R. M. Richard, P. Sadayappan, G. C. Schatz, W. A. Shelton, D. W. Silverstein,
   D. M. A. Smith, T. A. Soares, D. Song, M. Swart, H. L. Taylor, G. S. Thomas,
            V. Tipparaju, D. G. Truhlar, K. Tsemekhman, T. Van Voorhis,
     . Vzquez-Mayagoitia, P. Verma, O. Villa, A. Vishnu, K. D. Vogiatzis,
        D. Wang, J. H. Weare, M. J. Williamson, T. L. Windus, K. Woliski,
        A. T. Wong, Q. Wu, C. Yang, Q. Yu, M. Zacharias, Z. Zhang, Y. Zhao,
                                and R. J. Harrison
                        "NWChem: Past, present, and future
                         J. Chem. Phys. 152, 184102 (2020)
                               doi:10.1063/5.0004997
 
                                      AUTHORS
                                      -------
     E. Apra, E. J. Bylaska, N. Govind, K. Kowalski, M. Valiev, W. A. de Jong,
      T. P. Straatsma, H. J. J. van Dam, D. Wang, T. L. Windus, N. P. Bauman,
       A. Panyala, J. Hammond, J. Autschbach, K. Bhaskaran-Nair, J. Brabec,
    K. Lopata, S. A. Fischer, S. Krishnamoorthy, M. Jacquelin, W. Ma, M. Klemm,
       O. Villa, Y. Chen, V. Anisimov, F. Aquino, S. Hirata, M. T. Hackler,
           Eric Hermes, L. Jensen, J. E. Moore, J. C. Becca, V. Konjkov,
            D. Mejia-Rodriguez, T. Risthaus, M. Malagoli, A. Marenich,
   A. Otero-de-la-Roza, J. Mullin, P. Nichols, R. Peverati, J. Pittner, Y. Zhao,
        P.-D. Fan, A. Fonari, M. J. Williamson, R. J. Harrison, J. R. Rehr,
      M. Dupuis, D. Silverstein, D. M. A. Smith, J. Nieplocha, V. Tipparaju,
      M. Krishnan, B. E. Van Kuiken, A. Vazquez-Mayagoitia, M. Swart, Q. Wu,
   T. Van Voorhis, A. A. Auer, M. Nooijen, L. D. Crosby, E. Brown, G. Cisneros,
     G. I. Fann, H. Fruchtl, J. Garza, K. Hirao, R. A. Kendall, J. A. Nichols,
       K. Tsemekhman, K. Wolinski, J. Anchell, D. E. Bernholdt, P. Borowski,
       T. Clark, D. Clerc, H. Dachsel, M. J. O. Deegan, K. Dyall, D. Elwood,
      E. Glendening, M. Gutowski, A. C. Hess, J. Jaffe, B. G. Johnson, J. Ju,
        R. Kobayashi, R. Kutteh, Z. Lin, R. Littlefield, X. Long, B. Meng,
      T. Nakajima, S. Niu, L. Pollack, M. Rosing, K. Glaesemann, G. Sandrone,
      M. Stave, H. Taylor, G. Thomas, J. H. van Lenthe, A. T. Wong, Z. Zhang.

 Total times  cpu:        3.5s     wall:        3.7s
