 
             Northwest Computational Chemistry Package (NWChem) 7.0.0
             --------------------------------------------------------
 
 
                    Environmental Molecular Sciences Laboratory
                       Pacific Northwest National Laboratory
                                Richland, WA 99352
 
                              Copyright (c) 1994-2020
                       Pacific Northwest National Laboratory
                            Battelle Memorial Institute
 
             NWChem is an open-source computational chemistry package
                        distributed under the terms of the
                      Educational Community License (ECL) 2.0
             A copy of the license is included with this distribution
                              in the LICENSE.TXT file
 
                                  ACKNOWLEDGMENT
                                  --------------

            This software and its documentation were developed at the
            EMSL at Pacific Northwest National Laboratory, a multiprogram
            national laboratory, operated for the U.S. Department of Energy
            by Battelle under Contract Number DE-AC05-76RL01830. Support
            for this work was provided by the Department of Energy Office
            of Biological and Environmental Research, Office of Basic
            Energy Sciences, and the Office of Advanced Scientific Computing.


                                NWChem Input Module
                                -------------------
 
 
 Summary of "ao basis" -> "" (spherical)
 ------------------------------------------------------------------------------
       Tag                 Description            Shells   Functions and Types
 ---------------- ------------------------------  ------  ---------------------
 *                        ahlrichs_vtz                on all atoms 



 Scaling coordinates for geometry "geometry" by  1.889725989
 (inverse scale =  0.529177249)

 
 
                             Geometry "geometry" -> ""
                             -------------------------
 
 Output coordinates in angstroms (scale by  1.889725989 to convert to a.u.)
 
  No.       Tag          Charge          X              Y              Z
 ---- ---------------- ---------- -------------- -------------- --------------
    1 C                    6.0000     0.09483265     1.49648796     0.01671272
    2 C                    6.0000     1.42635536     1.61839195    -0.11397685
    3 H                    1.0000    -0.57484646     2.35220625     0.09901637
    4 O                    8.0000    -0.65764650     0.32768037     0.07081099
    5 H                    1.0000     1.86659530     2.61354565    -0.13987019
    6 H                    1.0000     2.10800350     0.77393195    -0.19732769
    7 C                    6.0000     0.08098051    -0.94205474    -0.02522139
    8 C                    6.0000    -0.93680533    -2.06444295     0.05832697
    9 H                    1.0000     0.81283634    -0.99387307     0.79959399
   10 H                    1.0000     0.63347192    -0.96356494    -0.98068901
   11 H                    1.0000    -1.48402938    -2.02281641     1.00959054
   12 H                    1.0000    -0.43013608    -3.03847230    -0.00937091
   13 H                    1.0000    -1.66290232    -1.99269342    -0.76247962
 
      Atomic Mass 
      ----------- 
 
      C                 12.000000
      H                  1.007825
      O                 15.994910
 

 Effective nuclear repulsion energy (a.u.)     174.0510111644

            Nuclear Dipole moment (a.u.) 
            ----------------------------
        X                 Y               Z
 ---------------- ---------------- ----------------
     0.0000000000     0.0000000000     0.0000000000
 
 
            XYZ format geometry
            -------------------
    13
 geometry
 C                     0.09483265     1.49648796     0.01671272
 C                     1.42635536     1.61839195    -0.11397685
 H                    -0.57484646     2.35220625     0.09901637
 O                    -0.65764650     0.32768037     0.07081099
 H                     1.86659530     2.61354565    -0.13987019
 H                     2.10800350     0.77393195    -0.19732769
 C                     0.08098051    -0.94205474    -0.02522139
 C                    -0.93680533    -2.06444295     0.05832697
 H                     0.81283634    -0.99387307     0.79959399
 H                     0.63347192    -0.96356494    -0.98068901
 H                    -1.48402938    -2.02281641     1.00959054
 H                    -0.43013608    -3.03847230    -0.00937091
 H                    -1.66290232    -1.99269342    -0.76247962
 
 ==============================================================================
                                internuclear distances
 ------------------------------------------------------------------------------
       center one      |      center two      | atomic units |  angstroms
 ------------------------------------------------------------------------------
    2 C                |   1 C                |     2.53878  |     1.34346
    3 H                |   1 C                |     2.05928  |     1.08972
    4 O                |   1 C                |     2.62887  |     1.39114
    5 H                |   2 C                |     2.05695  |     1.08849
    6 H                |   2 C                |     2.05686  |     1.08844
    7 C                |   4 O                |     2.78183  |     1.47208
    8 C                |   7 C                |     2.86755  |     1.51744
    9 H                |   7 C                |     2.08609  |     1.10391
   10 H                |   7 C                |     2.08610  |     1.10391
   11 H                |   8 C                |     2.07534  |     1.09822
   12 H                |   8 C                |     2.07872  |     1.10001
   13 H                |   8 C                |     2.07534  |     1.09822
 ------------------------------------------------------------------------------
                         number of included internuclear distances:         12
 ==============================================================================



 ==============================================================================
                                 internuclear angles
 ------------------------------------------------------------------------------
        center 1       |       center 2       |       center 3       |  degrees
 ------------------------------------------------------------------------------
    2 C                |   1 C                |   3 H                |   123.04
    2 C                |   1 C                |   4 O                |   128.03
    3 H                |   1 C                |   4 O                |   108.93
    1 C                |   2 C                |   5 H                |   119.09
    1 C                |   2 C                |   6 H                |   123.90
    5 H                |   2 C                |   6 H                |   117.01
    1 C                |   4 O                |   7 C                |   116.79
    4 O                |   7 C                |   8 C                |   107.33
    4 O                |   7 C                |   9 H                |   108.93
    4 O                |   7 C                |  10 H                |   108.93
    8 C                |   7 C                |   9 H                |   111.64
    8 C                |   7 C                |  10 H                |   111.65
    9 H                |   7 C                |  10 H                |   108.30
    7 C                |   8 C                |  11 H                |   110.72
    7 C                |   8 C                |  12 H                |   110.04
    7 C                |   8 C                |  13 H                |   110.73
   11 H                |   8 C                |  12 H                |   108.44
   11 H                |   8 C                |  13 H                |   108.39
   12 H                |   8 C                |  13 H                |   108.44
 ------------------------------------------------------------------------------
                            number of included internuclear angles:         19
 ==============================================================================



                              Aldehyde and Ketone set
                              -----------------------
 
                                 NWChem DFT Module
                                 -----------------
 
 
                              Aldehyde and Ketone set
 
 
                      Basis "ao basis" -> "ao basis" (spherical)
                      -----
  C (Carbon)
  ----------
            Exponent  Coefficients 
       -------------- ---------------------------------------------------------
  1 S  8.50603840E+03  0.000534
  1 S  1.27573290E+03  0.004125
  1 S  2.90311870E+02  0.021171
  1 S  8.20562000E+01  0.082418
  1 S  2.64796410E+01  0.240129
 
  2 S  9.24145850E+00  1.000000
 
  3 S  3.36435300E+00  1.000000
 
  4 S  8.71741640E-01  1.000000
 
  5 S  3.63523520E-01  1.000000
 
  6 S  1.28731350E-01  1.000000
 
  7 P  3.47094960E+01  0.005330
  7 P  7.95908830E+00  0.035866
  7 P  2.37869720E+00  0.142003
  7 P  8.15400650E-01  0.342031
 
  8 P  2.89537850E-01  1.000000
 
  9 P  1.00847540E-01  1.000000
 
  H (Hydrogen)
  ------------
            Exponent  Coefficients 
       -------------- ---------------------------------------------------------
  1 S  3.40613410E+01  0.006025
  1 S  5.12357460E+00  0.045021
  1 S  1.16466260E+00  0.201897
 
  2 S  3.27230410E-01  1.000000
 
  3 S  1.03072410E-01  1.000000
 
  O (Oxygen)
  ----------
            Exponent  Coefficients 
       -------------- ---------------------------------------------------------
  1 S  1.59026475E+04  0.000515
  1 S  2.38495378E+03  0.003982
  1 S  5.42719572E+02  0.020477
  1 S  1.53404079E+02  0.080262
  1 S  4.95457161E+01  0.237668
 
  2 S  1.73396499E+01  1.000000
 
  3 S  6.33033553E+00  1.000000
 
  4 S  1.69958822E+00  1.000000
 
  5 S  6.89544913E-01  1.000000
 
  6 S  2.39360282E-01  1.000000
 
  7 P  6.32705240E+01  0.006071
  7 P  1.46233123E+01  0.041948
  7 P  4.44895180E+00  0.161569
  7 P  1.52815132E+00  0.356828
 
  8 P  5.29973159E-01  1.000000
 
  9 P  1.75094460E-01  1.000000
 


 Summary of "ao basis" -> "ao basis" (spherical)
 ------------------------------------------------------------------------------
       Tag                 Description            Shells   Functions and Types
 ---------------- ------------------------------  ------  ---------------------
 C                        ahlrichs vtz               9       15   6s3p
 H                        ahlrichs vtz               3        3   3s
 O                        ahlrichs vtz               9       15   6s3p




 Summary of "ao basis" -> "ao basis" (spherical)
 ------------------------------------------------------------------------------
       Tag                 Description            Shells   Functions and Types
 ---------------- ------------------------------  ------  ---------------------
 C                        ahlrichs vtz               9       15   6s3p
 H                        ahlrichs vtz               3        3   3s
 O                        ahlrichs vtz               9       15   6s3p


  Caching 1-el integrals 
 
            General Information
            -------------------
          SCF calculation type: DFT
          Wavefunction type:  spin polarized.
          No. of atoms     :    13
          No. of electrons :    39
           Alpha electrons :    20
            Beta electrons :    19
          Charge           :     1
          Spin multiplicity:     2
          Use of symmetry is: off; symmetry adaption is: off
          Maximum number of iterations: 999
          This is a Direct SCF calculation.
          AO basis - number of functions:    99
                     number of shells:    69
          Convergence on energy requested:  1.00D-08
          Convergence on density requested:  1.00D-07
          Convergence on gradient requested:  1.00D-06
 
              XC Information
              --------------
                        PBE96 Method XC Functional
          PerdewBurkeErnzerhof Exchange Functional  1.000          
            Perdew 1991 LDA Correlation Functional  1.000 local    
           PerdewBurkeErnz. Correlation Functional  1.000 non-local
 
             Grid Information
             ----------------
          Grid used for XC integration:  fine      
          Radial quadrature: Mura-Knowles        
          Angular quadrature: Lebedev. 
          Tag              B.-S. Rad. Rad. Pts. Rad. Cut. Ang. Pts.
          ---              ---------- --------- --------- ---------
          C                   0.70       70          14.0       590
          H                   0.35       60          14.0       590
          O                   0.60       70          10.0       590
          Grid pruning is: on 
          Number of quadrature shells:   830
          Spatial weights used:  Erf1
 
          Convergence Information
          -----------------------
          Convergence aids based upon iterative change in 
          total energy or number of iterations. 
          Levelshifting, if invoked, occurs when the 
          HOMO/LUMO gap drops below (HL_TOL):  1.00D-02
          DIIS, if invoked, will attempt to extrapolate 
          using up to (NFOCK): 10 stored Fock matrices.

                    Damping( 0%)  Levelshifting(0.5)       DIIS
                  --------------- ------------------- ---------------
          dE  on:    start            ASAP                start   
          dE off:    2 iters        999 iters           999 iters 

 
      Screening Tolerance Information
      -------------------------------
          Density screening/tol_rho:  1.00D-12
          AO Gaussian exp screening on grid/accAOfunc:  18
          CD Gaussian exp screening on grid/accCDfunc:  20
          XC Gaussian exp screening on grid/accXCfunc:  20
          Schwarz screening/accCoul:  1.00D-12

      Dispersion Parameters
      ---------------------

           DFT-D3BJ Model   
          s6 scale factor  :        1.000000000000
          s8 scale factor  :        0.787500000000
          a1 parameter     :        0.428900000000
          a2 parameter     :        4.440700000000
              vdW contrib  :       -0.008371659325


 Forcing the number of linearly dependent vectors to be  0
 
      Superposition of Atomic Density Guess
      -------------------------------------
 
 Sum of atomic energies:        -229.46696562
   Time after variat. SCF:      0.2
   Time prior to 1st pass:      0.2

 Grid_pts file          = ./23_EtOCHCH2.gridpts.00
 Record size in doubles =  12289        No. of grid_pts per rec  =   3070
 Max. records in memory =     13        Max. recs in file   =  67550051

 Grid integrated density:      39.999996341926
 Requested integration accuracy:   0.10E-06

           Memory utilization after 1st SCF pass: 
           Heap Space remaining (MW):        0.00                 351
          Stack Space remaining (MW):      288.36           288357004

   convergence    iter        energy       DeltaE   RMS-Dens  Diis-err    time
 ---------------- ----- ----------------- --------- --------- ---------  ------
 d= 0,ls=0.0,diis     1   -232.7166425286 -4.07D+02  1.39D-02  1.39D+01     0.5
                                                     1.34D-02  1.26D+01
 d= 0,ls=0.0,diis     2   -231.7254312480  9.91D-01  6.44D-03  2.22D-01     1.0
                                                     8.82D-03  2.15D-01
 d= 0,ls=0.0,diis     3   -231.2045098666  5.21D-01  5.06D-03  9.26D-01     1.4
                                                     7.94D-03  8.28D-01
 d= 0,ls=0.0,diis     4   -231.7869618637 -5.82D-01  1.86D-03  1.01D-01     1.8
                                                     1.67D-03  8.71D-02
 d= 0,ls=0.0,diis     5   -231.8301845572 -4.32D-02  9.07D-04  5.90D-03     2.2
                                                     1.17D-03  5.70D-03
 d= 0,ls=0.0,diis     6   -231.8275298789  2.65D-03  4.50D-04  1.60D-02     2.6
                                                     7.20D-04  1.55D-02
 d= 0,ls=0.0,diis     7   -231.8340029828 -6.47D-03  1.74D-04  6.28D-04     3.0
                                                     2.71D-04  6.22D-04
 d= 0,ls=0.0,diis     8   -231.8343311729 -3.28D-04  7.18D-05  1.42D-04     3.5
                                                     8.32D-05  1.40D-04
 d= 0,ls=0.0,diis     9   -231.8344071553 -7.60D-05  1.97D-05  2.84D-06     3.9
                                                     1.92D-05  2.88D-06
 d= 0,ls=0.0,diis    10   -231.8344091303 -1.98D-06  6.12D-06  4.74D-07     4.2
                                                     6.28D-06  4.41D-07
 d= 0,ls=0.0,diis    11   -231.8344093237 -1.93D-07  3.10D-06  2.35D-07     4.6
                                                     1.81D-06  1.45D-07
 d= 0,ls=0.0,diis    12   -231.8344094171 -9.33D-08  1.00D-06  1.25D-08     5.0
                                                     1.20D-06  1.17D-08
 d= 0,ls=0.0,diis    13   -231.8344094254 -8.29D-09  2.36D-07  6.67D-10     5.4
                                                     3.51D-07  8.49D-10
 d= 0,ls=0.0,diis    14   -231.8344094259 -5.88D-10  5.18D-08  2.21D-11     5.8
                                                     6.94D-08  2.00D-11


         Total DFT energy =     -231.834409425940
      One electron energy =     -648.754050275620
           Coulomb energy =      275.430292711843
          Exchange energy =      -31.295837191562
       Correlation energy =       -1.257454175634
 Nuclear repulsion energy =      174.051011164359

    Dispersion correction =       -0.008371659325

 Numeric. integr. density =       38.999999220150

     Total iterative time =      5.6s


 
                    DFT Final Alpha Molecular Orbital Analysis
                    ------------------------------------------
 
 Vector    1  Occ=1.000000D+00  E=-1.909228D+01
              MO Center= -6.6D-01,  3.3D-01,  7.1D-02, r^2= 1.5D-02
   Bfn.  Coefficient  Atom+Function         Bfn.  Coefficient  Atom+Function  
  ----- ------------  ---------------      ----- ------------  ---------------
    35      0.424545   4 O  s                36      0.366317   4 O  s         
    34      0.299467   4 O  s                37      0.055512   4 O  s         
 
 Vector    2  Occ=1.000000D+00  E=-1.022050D+01
              MO Center=  9.5D-02,  1.5D+00,  1.7D-02, r^2= 2.8D-02
   Bfn.  Coefficient  Atom+Function         Bfn.  Coefficient  Atom+Function  
  ----- ------------  ---------------      ----- ------------  ---------------
     2      0.424160   1 C  s                 3      0.359654   1 C  s         
     1      0.308780   1 C  s                 4      0.057219   1 C  s         
 
 Vector    3  Occ=1.000000D+00  E=-1.017373D+01
              MO Center=  1.4D+00,  1.6D+00, -1.1D-01, r^2= 2.8D-02
   Bfn.  Coefficient  Atom+Function         Bfn.  Coefficient  Atom+Function  
  ----- ------------  ---------------      ----- ------------  ---------------
    17      0.423922   2 C  s                18      0.359740   2 C  s         
    16      0.308683   2 C  s                19      0.057769   2 C  s         
 
 Vector    4  Occ=1.000000D+00  E=-1.016250D+01
              MO Center=  8.1D-02, -9.4D-01, -2.5D-02, r^2= 2.8D-02
   Bfn.  Coefficient  Atom+Function         Bfn.  Coefficient  Atom+Function  
  ----- ------------  ---------------      ----- ------------  ---------------
    56      0.424321   7 C  s                57      0.359483   7 C  s         
    55      0.308845   7 C  s                58      0.057335   7 C  s         
 
 Vector    5  Occ=1.000000D+00  E=-1.005418D+01
              MO Center= -9.4D-01, -2.1D+00,  5.8D-02, r^2= 2.8D-02
   Bfn.  Coefficient  Atom+Function         Bfn.  Coefficient  Atom+Function  
  ----- ------------  ---------------      ----- ------------  ---------------
    71      0.424245   8 C  s                72      0.359414   8 C  s         
    70      0.308828   8 C  s                73      0.057708   8 C  s         
 
 Vector    6  Occ=1.000000D+00  E=-1.250603D+00
              MO Center= -4.1D-01,  3.9D-01,  4.7D-02, r^2= 6.2D-01
   Bfn.  Coefficient  Atom+Function         Bfn.  Coefficient  Atom+Function  
  ----- ------------  ---------------      ----- ------------  ---------------
    38      0.516029   4 O  s                39      0.278583   4 O  s         
     5      0.165077   1 C  s                36     -0.144339   4 O  s         
    59      0.120429   7 C  s                35     -0.119432   4 O  s         
    37      0.119603   4 O  s                43      0.094756   4 O  px        
    40      0.088939   4 O  px                8     -0.077676   1 C  py        
 
 Vector    7  Occ=1.000000D+00  E=-9.711611D-01
              MO Center=  6.4D-01,  1.3D+00, -4.1D-02, r^2= 1.8D+00
   Bfn.  Coefficient  Atom+Function         Bfn.  Coefficient  Atom+Function  
  ----- ------------  ---------------      ----- ------------  ---------------
    20      0.384736   2 C  s                 5      0.353461   1 C  s         
    59     -0.154562   7 C  s                38     -0.114956   4 O  s         
    18     -0.111795   2 C  s                 7      0.104984   1 C  px        
     3     -0.102600   1 C  s                21      0.098550   2 C  s         
    22     -0.095166   2 C  px               41      0.095105   4 O  py        
 
 Vector    8  Occ=1.000000D+00  E=-9.049802D-01
              MO Center= -3.7D-02, -4.2D-01, -3.9D-03, r^2= 2.8D+00
   Bfn.  Coefficient  Atom+Function         Bfn.  Coefficient  Atom+Function  
  ----- ------------  ---------------      ----- ------------  ---------------
    59      0.378013   7 C  s                74      0.233128   8 C  s         
    20      0.204421   2 C  s                41     -0.168538   4 O  py        
    60      0.142882   7 C  s                44     -0.140794   4 O  py        
     7      0.122800   1 C  px               38     -0.110145   4 O  s         
    57     -0.099941   7 C  s                39     -0.085777   4 O  s         
 
 Vector    9  Occ=1.000000D+00  E=-7.961380D-01
              MO Center= -3.5D-01, -4.7D-01,  2.7D-02, r^2= 4.3D+00
   Bfn.  Coefficient  Atom+Function         Bfn.  Coefficient  Atom+Function  
  ----- ------------  ---------------      ----- ------------  ---------------
    74      0.362097   8 C  s                 5      0.249683   1 C  s         
    41      0.184991   4 O  py               20     -0.170313   2 C  s         
    44      0.156129   4 O  py               62     -0.134288   7 C  py        
    75      0.113799   8 C  s                 7     -0.107627   1 C  px        
    65     -0.097346   7 C  py               10     -0.096570   1 C  px        
 
 Vector   10  Occ=1.000000D+00  E=-7.391549D-01
              MO Center=  2.4D-01, -3.1D-01, -2.9D-02, r^2= 4.0D+00
   Bfn.  Coefficient  Atom+Function         Bfn.  Coefficient  Atom+Function  
  ----- ------------  ---------------      ----- ------------  ---------------
    59      0.274039   7 C  s                74     -0.222182   8 C  s         
    20     -0.211886   2 C  s                 5      0.185593   1 C  s         
    38     -0.159560   4 O  s                39     -0.159610   4 O  s         
    61      0.149678   7 C  px               60      0.133878   7 C  s         
    64      0.124035   7 C  px               22     -0.107184   2 C  px        
 
 Vector   11  Occ=1.000000D+00  E=-7.087566D-01
              MO Center=  4.8D-01,  9.3D-01, -3.2D-02, r^2= 2.9D+00
   Bfn.  Coefficient  Atom+Function         Bfn.  Coefficient  Atom+Function  
  ----- ------------  ---------------      ----- ------------  ---------------
     8      0.223896   1 C  py               41     -0.210533   4 O  py        
    11      0.185782   1 C  py               44     -0.179998   4 O  py        
    22     -0.157298   2 C  px               23      0.147370   2 C  py        
    26      0.119572   2 C  py                5      0.114704   1 C  s         
    53     -0.115116   6 H  s                52     -0.109226   6 H  s         
 
 Vector   12  Occ=1.000000D+00  E=-6.776393D-01
              MO Center=  6.3D-01,  1.1D+00, -4.4D-02, r^2= 3.5D+00
   Bfn.  Coefficient  Atom+Function         Bfn.  Coefficient  Atom+Function  
  ----- ------------  ---------------      ----- ------------  ---------------
    22     -0.221841   2 C  px                7      0.218634   1 C  px        
    10      0.187153   1 C  px               23     -0.141289   2 C  py        
    59     -0.137080   7 C  s                25     -0.128375   2 C  px        
    20     -0.117660   2 C  s                40      0.118063   4 O  px        
    50     -0.118087   5 H  s                26     -0.116738   2 C  py        
 
 Vector   13  Occ=1.000000D+00  E=-6.652695D-01
              MO Center= -1.9D-01, -1.3D-01,  1.6D-02, r^2= 1.9D+00
   Bfn.  Coefficient  Atom+Function         Bfn.  Coefficient  Atom+Function  
  ----- ------------  ---------------      ----- ------------  ---------------
    42      0.312662   4 O  pz               45      0.267707   4 O  pz        
    63      0.215677   7 C  pz               66      0.204235   7 C  pz        
     9      0.128758   1 C  pz               48      0.127135   4 O  pz        
    12      0.124699   1 C  pz               85      0.081434   9 H  s         
    88     -0.081390  10 H  s                86      0.077925   9 H  s         
 
 Vector   14  Occ=1.000000D+00  E=-5.967160D-01
              MO Center=  9.1D-01,  1.3D+00, -6.8D-02, r^2= 3.2D+00
   Bfn.  Coefficient  Atom+Function         Bfn.  Coefficient  Atom+Function  
  ----- ------------  ---------------      ----- ------------  ---------------
    23      0.285613   2 C  py               26      0.264700   2 C  py        
    40      0.178262   4 O  px               43      0.161381   4 O  px        
    50      0.158965   5 H  s                53     -0.157999   6 H  s         
    49      0.132155   5 H  s                52     -0.128266   6 H  s         
     8     -0.115280   1 C  py               11     -0.097400   1 C  py        
 
 Vector   15  Occ=1.000000D+00  E=-5.724643D-01
              MO Center= -6.6D-02, -2.4D-01,  2.2D-03, r^2= 3.3D+00
   Bfn.  Coefficient  Atom+Function         Bfn.  Coefficient  Atom+Function  
  ----- ------------  ---------------      ----- ------------  ---------------
    42      0.214855   4 O  pz               63     -0.209212   7 C  pz        
     9      0.197652   1 C  pz               12      0.191039   1 C  pz        
    45      0.184460   4 O  pz               66     -0.172517   7 C  pz        
    78     -0.150351   8 C  pz               24      0.132569   2 C  pz        
    81     -0.132629   8 C  pz               86     -0.124088   9 H  s         
 
 Vector   16  Occ=1.000000D+00  E=-5.668480D-01
              MO Center= -4.2D-01,  1.9D-01,  4.5D-02, r^2= 3.2D+00
   Bfn.  Coefficient  Atom+Function         Bfn.  Coefficient  Atom+Function  
  ----- ------------  ---------------      ----- ------------  ---------------
    40      0.283340   4 O  px               43      0.239475   4 O  px        
    62      0.194871   7 C  py               65      0.184180   7 C  py        
     7     -0.168744   1 C  px               32      0.161652   3 H  s         
    22      0.146911   2 C  px               25      0.136758   2 C  px        
    76     -0.135996   8 C  px               38     -0.129539   4 O  s         
 
 Vector   17  Occ=1.000000D+00  E=-5.251176D-01
              MO Center= -4.8D-01, -1.4D+00,  2.3D-02, r^2= 2.5D+00
   Bfn.  Coefficient  Atom+Function         Bfn.  Coefficient  Atom+Function  
  ----- ------------  ---------------      ----- ------------  ---------------
    77      0.280024   8 C  py               80      0.228303   8 C  py        
    61     -0.217768   7 C  px               64     -0.188360   7 C  px        
    40      0.169665   4 O  px               39     -0.162815   4 O  s         
    95     -0.153341  12 H  s                43      0.132901   4 O  px        
    94     -0.121074  12 H  s                59      0.118761   7 C  s         
 
 Vector   18  Occ=1.000000D+00  E=-5.095646D-01
              MO Center= -7.6D-01, -1.8D+00,  4.5D-02, r^2= 2.4D+00
   Bfn.  Coefficient  Atom+Function         Bfn.  Coefficient  Atom+Function  
  ----- ------------  ---------------      ----- ------------  ---------------
    76      0.277698   8 C  px               79      0.240024   8 C  px        
    95      0.169702  12 H  s                61     -0.133647   7 C  px        
    94      0.131217  12 H  s                40      0.125987   4 O  px        
    43      0.117232   4 O  px               92     -0.116004  11 H  s         
    77     -0.115307   8 C  py               98     -0.115876  13 H  s         
 
 Vector   19  Occ=1.000000D+00  E=-4.982436D-01
              MO Center= -6.9D-02, -5.3D-02,  6.3D-03, r^2= 5.2D+00
   Bfn.  Coefficient  Atom+Function         Bfn.  Coefficient  Atom+Function  
  ----- ------------  ---------------      ----- ------------  ---------------
    27      0.262560   2 C  pz               24      0.257470   2 C  pz        
    78      0.211789   8 C  pz               42     -0.192742   4 O  pz        
    81      0.192404   8 C  pz                9      0.169264   1 C  pz        
    45     -0.165144   4 O  pz               12      0.160805   1 C  pz        
    48     -0.123230   4 O  pz               92      0.121439  11 H  s         
 
 Vector   20  Occ=1.000000D+00  E=-4.849832D-01
              MO Center= -1.8D-01, -5.9D-01,  7.4D-03, r^2= 4.1D+00
   Bfn.  Coefficient  Atom+Function         Bfn.  Coefficient  Atom+Function  
  ----- ------------  ---------------      ----- ------------  ---------------
    42      0.234036   4 O  pz               45      0.200982   4 O  pz        
    78      0.198997   8 C  pz               27     -0.194977   2 C  pz        
    24     -0.185945   2 C  pz               81      0.171193   8 C  pz        
    86     -0.161622   9 H  s                89      0.161671  10 H  s         
    63     -0.157110   7 C  pz               48      0.141092   4 O  pz        
 
 Vector   21  Occ=0.000000D+00  E=-2.808751D-01
              MO Center=  5.8D-01,  1.5D+00, -3.2D-02, r^2= 2.0D+00
   Bfn.  Coefficient  Atom+Function         Bfn.  Coefficient  Atom+Function  
  ----- ------------  ---------------      ----- ------------  ---------------
    12      0.442390   1 C  pz               15      0.425057   1 C  pz        
    30     -0.389750   2 C  pz                9      0.383384   1 C  pz        
    27     -0.355152   2 C  pz               24     -0.306666   2 C  pz        
    42     -0.177423   4 O  pz               48     -0.177570   4 O  pz        
    45     -0.145017   4 O  pz               84      0.058329   8 C  pz        
 
 Vector   22  Occ=0.000000D+00  E=-1.762857D-01
              MO Center=  2.8D-01,  2.8D-01, -2.3D-02, r^2= 4.0D+00
   Bfn.  Coefficient  Atom+Function         Bfn.  Coefficient  Atom+Function  
  ----- ------------  ---------------      ----- ------------  ---------------
    39      1.005502   4 O  s                54      0.611202   6 H  s         
    51     -0.590757   5 H  s                29      0.448225   2 C  py        
    68     -0.430767   7 C  py               67      0.355085   7 C  px        
    11      0.322900   1 C  py               65     -0.315398   7 C  py        
    43      0.260228   4 O  px               21     -0.257149   2 C  s         
 
 Vector   23  Occ=0.000000D+00  E=-1.544500D-01
              MO Center=  1.3D+00,  4.9D-02, -1.3D-01, r^2= 6.0D+00
   Bfn.  Coefficient  Atom+Function         Bfn.  Coefficient  Atom+Function  
  ----- ------------  ---------------      ----- ------------  ---------------
    60      1.578090   7 C  s                21      1.188764   2 C  s         
    54     -1.120130   6 H  s                87     -0.821786   9 H  s         
    90     -0.821393  10 H  s                51     -0.548454   5 H  s         
    28      0.390994   2 C  px               14      0.379247   1 C  py        
    67      0.376756   7 C  px               33     -0.346657   3 H  s         
 
 Vector   24  Occ=0.000000D+00  E=-1.328194D-01
              MO Center=  1.5D-01,  2.0D+00,  2.0D-02, r^2= 6.0D+00
   Bfn.  Coefficient  Atom+Function         Bfn.  Coefficient  Atom+Function  
  ----- ------------  ---------------      ----- ------------  ---------------
    33      1.530307   3 H  s                 6     -1.153713   1 C  s         
    51      0.922108   5 H  s                21     -0.483188   2 C  s         
    87     -0.464667   9 H  s                90     -0.463888  10 H  s         
    14     -0.457916   1 C  py               13      0.431645   1 C  px        
    67      0.401819   7 C  px               60      0.395219   7 C  s         
 
 Vector   25  Occ=0.000000D+00  E=-1.210511D-01
              MO Center=  4.5D-01, -4.5D-01, -5.3D-02, r^2= 7.7D+00
   Bfn.  Coefficient  Atom+Function         Bfn.  Coefficient  Atom+Function  
  ----- ------------  ---------------      ----- ------------  ---------------
    75      1.587283   8 C  s                21     -1.214205   2 C  s         
    54      0.897932   6 H  s                60      0.738962   7 C  s         
    68      0.642948   7 C  py               87     -0.553002   9 H  s         
    90     -0.553047  10 H  s                93     -0.529263  11 H  s         
    99     -0.529094  13 H  s                67      0.523216   7 C  px        
 
 Vector   26  Occ=0.000000D+00  E=-9.894559D-02
              MO Center=  6.9D-01, -9.5D-01, -9.3D-02, r^2= 4.8D+00
   Bfn.  Coefficient  Atom+Function         Bfn.  Coefficient  Atom+Function  
  ----- ------------  ---------------      ----- ------------  ---------------
    90     -1.772744  10 H  s                87      1.761994   9 H  s         
    69     -1.201164   7 C  pz               93      0.457600  11 H  s         
    99     -0.457988  13 H  s                66     -0.420254   7 C  pz        
    63     -0.287402   7 C  pz               48      0.185039   4 O  pz        
    30      0.180696   2 C  pz               27     -0.138547   2 C  pz        
 
 Vector   27  Occ=0.000000D+00  E=-9.698886D-02
              MO Center=  4.7D-01,  1.4D+00, -1.7D-02, r^2= 6.1D+00
   Bfn.  Coefficient  Atom+Function         Bfn.  Coefficient  Atom+Function  
  ----- ------------  ---------------      ----- ------------  ---------------
     6      2.483660   1 C  s                21     -1.345398   2 C  s         
    33     -1.002441   3 H  s                51      0.849932   5 H  s         
    28      0.767813   2 C  px               68     -0.599336   7 C  py        
    67      0.567443   7 C  px               47     -0.508944   4 O  py        
    60      0.510573   7 C  s                87     -0.487623   9 H  s         
 
 Vector   28  Occ=0.000000D+00  E=-6.779898D-02
              MO Center= -5.5D-01, -1.2D+00,  3.4D-02, r^2= 8.8D+00
   Bfn.  Coefficient  Atom+Function         Bfn.  Coefficient  Atom+Function  
  ----- ------------  ---------------      ----- ------------  ---------------
    75      2.274988   8 C  s                60     -1.759354   7 C  s         
    93     -0.955013  11 H  s                99     -0.954806  13 H  s         
    21      0.865363   2 C  s                96     -0.567430  12 H  s         
    51     -0.529472   5 H  s                87      0.522889   9 H  s         
    90      0.519993  10 H  s                47     -0.457136   4 O  py        
 
 Vector   29  Occ=0.000000D+00  E=-5.431038D-02
              MO Center=  1.4D-02, -1.8D+00, -3.2D-02, r^2= 7.6D+00
   Bfn.  Coefficient  Atom+Function         Bfn.  Coefficient  Atom+Function  
  ----- ------------  ---------------      ----- ------------  ---------------
    96      2.230692  12 H  s                67      1.497547   7 C  px        
    83      1.382350   8 C  py               82     -0.930498   8 C  px        
    51     -0.846238   5 H  s                29      0.779126   2 C  py        
    54      0.740967   6 H  s                87     -0.662719   9 H  s         
    90     -0.664736  10 H  s                14     -0.623775   1 C  py        
 
 Vector   30  Occ=0.000000D+00  E=-3.691178D-02
              MO Center= -1.3D+00, -1.7D+00,  8.8D-02, r^2= 5.1D+00
   Bfn.  Coefficient  Atom+Function         Bfn.  Coefficient  Atom+Function  
  ----- ------------  ---------------      ----- ------------  ---------------
    99      2.082647  13 H  s                93     -2.070716  11 H  s         
    84      1.969525   8 C  pz               69     -1.480833   7 C  pz        
    90     -1.125438  10 H  s                87      1.115154   9 H  s         
    81      0.323013   8 C  pz               78      0.236213   8 C  pz        
    15     -0.232297   1 C  pz               82      0.201286   8 C  px        
 
 Vector   31  Occ=0.000000D+00  E=-3.671469D-02
              MO Center=  6.2D-01,  5.5D-01, -4.1D-02, r^2= 9.7D+00
   Bfn.  Coefficient  Atom+Function         Bfn.  Coefficient  Atom+Function  
  ----- ------------  ---------------      ----- ------------  ---------------
    51      1.839020   5 H  s                29     -1.809041   2 C  py        
    54     -1.796270   6 H  s                14      1.753981   1 C  py        
    33     -1.317727   3 H  s                96      0.868564  12 H  s         
    39      0.669799   4 O  s                 6     -0.546803   1 C  s         
    87      0.507435   9 H  s                93     -0.497137  11 H  s         
 
 Vector   32  Occ=0.000000D+00  E=-1.943229D-02
              MO Center= -9.5D-02, -7.1D-01, -2.5D-03, r^2= 8.8D+00
   Bfn.  Coefficient  Atom+Function         Bfn.  Coefficient  Atom+Function  
  ----- ------------  ---------------      ----- ------------  ---------------
    67      1.810159   7 C  px               33     -1.582170   3 H  s         
    83      1.456593   8 C  py               13     -1.394121   1 C  px        
    75      1.363184   8 C  s                82      1.332755   8 C  px        
    60     -1.301369   7 C  s                68      1.306173   7 C  py        
    21      1.269101   2 C  s                28     -1.209368   2 C  px        
 
 Vector   33  Occ=0.000000D+00  E= 1.775166D-03
              MO Center=  5.1D-01,  1.1D+00, -3.1D-02, r^2= 6.6D+00
   Bfn.  Coefficient  Atom+Function         Bfn.  Coefficient  Atom+Function  
  ----- ------------  ---------------      ----- ------------  ---------------
    69      0.840024   7 C  pz               15      0.745995   1 C  pz        
    87     -0.742155   9 H  s                90      0.739317  10 H  s         
    30      0.671823   2 C  pz               27     -0.443203   2 C  pz        
    12     -0.404373   1 C  pz               99      0.280183  13 H  s         
    93     -0.278505  11 H  s                84     -0.247532   8 C  pz        
 
 Vector   34  Occ=0.000000D+00  E= 4.371006D-03
              MO Center=  3.8D-01, -3.3D-01, -4.2D-02, r^2= 1.1D+01
   Bfn.  Coefficient  Atom+Function         Bfn.  Coefficient  Atom+Function  
  ----- ------------  ---------------      ----- ------------  ---------------
    28      2.238584   2 C  px                6      1.629741   1 C  s         
    21     -1.200803   2 C  s                60     -1.193450   7 C  s         
    13      1.153098   1 C  px               54     -1.045040   6 H  s         
    83      1.015427   8 C  py               82      0.992960   8 C  px        
    33      0.857186   3 H  s                75      0.604601   8 C  s         
 
 Vector   35  Occ=0.000000D+00  E= 3.110212D-02
              MO Center=  4.6D-01,  1.1D+00, -2.6D-02, r^2= 5.8D+00
   Bfn.  Coefficient  Atom+Function         Bfn.  Coefficient  Atom+Function  
  ----- ------------  ---------------      ----- ------------  ---------------
    13      1.791951   1 C  px               33      1.344095   3 H  s         
     6      1.303941   1 C  s                29      1.268779   2 C  py        
    14     -1.126618   1 C  py               21     -1.000006   2 C  s         
    54      0.990490   6 H  s                51     -0.851662   5 H  s         
    67     -0.793432   7 C  px               96      0.662744  12 H  s         
 
 Vector   36  Occ=0.000000D+00  E= 5.205389D-02
              MO Center=  6.3D-02, -4.8D-01, -1.5D-02, r^2= 8.0D+00
   Bfn.  Coefficient  Atom+Function         Bfn.  Coefficient  Atom+Function  
  ----- ------------  ---------------      ----- ------------  ---------------
    84      1.296001   8 C  pz               15      1.080431   1 C  pz        
    30     -1.042936   2 C  pz               69      0.611669   7 C  pz        
    93     -0.585006  11 H  s                99      0.584658  13 H  s         
    92     -0.408749  11 H  s                98      0.408084  13 H  s         
    27      0.339707   2 C  pz               12     -0.327891   1 C  pz        
 
 Vector   37  Occ=0.000000D+00  E= 5.948227D-02
              MO Center= -4.3D-01,  9.8D-01,  6.0D-02, r^2= 6.4D+00
   Bfn.  Coefficient  Atom+Function         Bfn.  Coefficient  Atom+Function  
  ----- ------------  ---------------      ----- ------------  ---------------
    13      2.952076   1 C  px               28      2.018104   2 C  px        
    21     -1.955755   2 C  s                 6      1.442005   1 C  s         
    51     -1.212048   5 H  s                54     -1.181173   6 H  s         
    68      1.135535   7 C  py               33      0.991805   3 H  s         
    14      0.937955   1 C  py               67      0.742054   7 C  px        
 
 Vector   38  Occ=0.000000D+00  E= 8.086953D-02
              MO Center=  1.5D-01, -4.8D-02, -2.2D-02, r^2= 7.7D+00
   Bfn.  Coefficient  Atom+Function         Bfn.  Coefficient  Atom+Function  
  ----- ------------  ---------------      ----- ------------  ---------------
    29      1.504805   2 C  py               82      1.369734   8 C  px        
    54      1.303638   6 H  s                51     -1.149623   5 H  s         
    21     -0.842243   2 C  s                96     -0.665695  12 H  s         
     5      0.637974   1 C  s                93      0.514452  11 H  s         
    28     -0.505841   2 C  px               99      0.495384  13 H  s         
 
 Vector   39  Occ=0.000000D+00  E= 8.207125D-02
              MO Center=  7.8D-02, -9.3D-01, -1.7D-02, r^2= 9.4D+00
   Bfn.  Coefficient  Atom+Function         Bfn.  Coefficient  Atom+Function  
  ----- ------------  ---------------      ----- ------------  ---------------
    84      1.991591   8 C  pz               69     -1.575488   7 C  pz        
    30      1.067951   2 C  pz               15     -0.684405   1 C  pz        
    90     -0.433313  10 H  s                87      0.416583   9 H  s         
    98      0.387146  13 H  s                27     -0.383612   2 C  pz        
    92     -0.382098  11 H  s                99      0.378681  13 H  s         
 
 Vector   40  Occ=0.000000D+00  E= 9.115214D-02
              MO Center=  6.0D-01, -1.7D-01, -6.2D-02, r^2= 7.8D+00
   Bfn.  Coefficient  Atom+Function         Bfn.  Coefficient  Atom+Function  
  ----- ------------  ---------------      ----- ------------  ---------------
    68      1.993836   7 C  py               14      1.634800   1 C  py        
    33     -1.157079   3 H  s                67     -1.022329   7 C  px        
    29     -0.881699   2 C  py               82      0.855896   8 C  px        
    60      0.801269   7 C  s                50      0.724229   5 H  s         
    59     -0.581111   7 C  s                13     -0.571612   1 C  px        
 
 Vector   41  Occ=0.000000D+00  E= 9.640282D-02
              MO Center= -8.3D-01, -1.1D+00,  6.4D-02, r^2= 5.9D+00
   Bfn.  Coefficient  Atom+Function         Bfn.  Coefficient  Atom+Function  
  ----- ------------  ---------------      ----- ------------  ---------------
    83      1.551042   8 C  py               82     -1.350421   8 C  px        
    21     -1.216670   2 C  s                13      1.037922   1 C  px        
    96      0.900239  12 H  s                95      0.606231  12 H  s         
     5      0.524144   1 C  s                60      0.521164   7 C  s         
    47      0.515576   4 O  py               28      0.504659   2 C  px        
 
 Vector   42  Occ=0.000000D+00  E= 1.137131D-01
              MO Center= -2.5D-01, -6.7D-02,  2.4D-02, r^2= 6.5D+00
   Bfn.  Coefficient  Atom+Function         Bfn.  Coefficient  Atom+Function  
  ----- ------------  ---------------      ----- ------------  ---------------
    69      2.934802   7 C  pz               84     -1.486640   8 C  pz        
    15     -1.338054   1 C  pz               87     -0.948798   9 H  s         
    90      0.949573  10 H  s                30      0.694334   2 C  pz        
    86     -0.643994   9 H  s                89      0.644562  10 H  s         
    93      0.481925  11 H  s                99     -0.482022  13 H  s         
 
 Vector   43  Occ=0.000000D+00  E= 1.599981D-01
              MO Center=  5.5D-01,  6.3D-01, -4.4D-02, r^2= 6.0D+00
   Bfn.  Coefficient  Atom+Function         Bfn.  Coefficient  Atom+Function  
  ----- ------------  ---------------      ----- ------------  ---------------
     6      2.625727   1 C  s                54     -1.763951   6 H  s         
    21     -1.386092   2 C  s                28      1.198588   2 C  px        
    67      1.190935   7 C  px               10      0.753208   1 C  px        
    25      0.740906   2 C  px               32     -0.696395   3 H  s         
    75      0.573922   8 C  s                53      0.570856   6 H  s         
 
 Vector   44  Occ=0.000000D+00  E= 2.094544D-01
              MO Center=  9.6D-01,  1.2D+00, -7.4D-02, r^2= 7.0D+00
   Bfn.  Coefficient  Atom+Function         Bfn.  Coefficient  Atom+Function  
  ----- ------------  ---------------      ----- ------------  ---------------
    29      3.967858   2 C  py               54      3.218355   6 H  s         
    51     -3.071514   5 H  s                 6      1.316274   1 C  s         
    33     -1.091385   3 H  s                14     -0.932494   1 C  py        
    26     -0.810295   2 C  py               87      0.746707   9 H  s         
    90      0.735134  10 H  s                32      0.720866   3 H  s         
 
 Vector   45  Occ=0.000000D+00  E= 2.221858D-01
              MO Center=  9.7D-02,  2.8D-01, -5.9D-03, r^2= 7.6D+00
   Bfn.  Coefficient  Atom+Function         Bfn.  Coefficient  Atom+Function  
  ----- ------------  ---------------      ----- ------------  ---------------
    33      3.924954   3 H  s                14     -3.284601   1 C  py        
    13      3.203414   1 C  px               21     -1.832319   2 C  s         
    68     -1.499002   7 C  py               83      1.238950   8 C  py        
    96      1.047040  12 H  s                54     -1.020165   6 H  s         
    28      0.997748   2 C  px               75     -0.807536   8 C  s         
 
 Vector   46  Occ=0.000000D+00  E= 2.309158D-01
              MO Center=  5.7D-01, -1.0D+00, -7.6D-02, r^2= 5.8D+00
   Bfn.  Coefficient  Atom+Function         Bfn.  Coefficient  Atom+Function  
  ----- ------------  ---------------      ----- ------------  ---------------
    87      3.289195   9 H  s                90     -3.286160  10 H  s         
    69     -2.873250   7 C  pz               99     -1.417851  13 H  s         
    93      1.407772  11 H  s                84     -1.125150   8 C  pz        
    66      1.010858   7 C  pz               86     -0.964088   9 H  s         
    89      0.962910  10 H  s                30     -0.534990   2 C  pz        
 
 Vector   47  Occ=0.000000D+00  E= 2.375693D-01
              MO Center=  4.6D-03, -5.1D-01, -1.1D-02, r^2= 8.3D+00
   Bfn.  Coefficient  Atom+Function         Bfn.  Coefficient  Atom+Function  
  ----- ------------  ---------------      ----- ------------  ---------------
    67      3.772361   7 C  px               68      3.497022   7 C  py        
    82      2.857007   8 C  px                6      2.605680   1 C  s         
    75      2.040303   8 C  s                33     -2.020163   3 H  s         
    93      1.778548  11 H  s                99      1.769680  13 H  s         
    90     -1.744655  10 H  s                87     -1.726855   9 H  s         
 
 Vector   48  Occ=0.000000D+00  E= 2.638624D-01
              MO Center=  8.3D-01,  1.6D+00, -5.4D-02, r^2= 7.7D+00
   Bfn.  Coefficient  Atom+Function         Bfn.  Coefficient  Atom+Function  
  ----- ------------  ---------------      ----- ------------  ---------------
    29      5.236360   2 C  py               51     -4.577315   5 H  s         
    14     -4.331509   1 C  py               33      4.125944   3 H  s         
    13      2.462101   1 C  px               54      2.368629   6 H  s         
    60      1.212510   7 C  s                59     -0.941035   7 C  s         
    28      0.852217   2 C  px               87     -0.816064   9 H  s         
 
 Vector   49  Occ=0.000000D+00  E= 2.846253D-01
              MO Center= -6.0D-01, -2.4D+00,  1.9D-02, r^2= 5.2D+00
   Bfn.  Coefficient  Atom+Function         Bfn.  Coefficient  Atom+Function  
  ----- ------------  ---------------      ----- ------------  ---------------
    96      3.443964  12 H  s                83      1.846027   8 C  py        
    82     -1.530118   8 C  px               60      1.424196   7 C  s         
    93     -1.416332  11 H  s                99     -1.412830  13 H  s         
    95     -1.166420  12 H  s                47      1.024263   4 O  py        
     6     -0.992062   1 C  s                80     -0.767993   8 C  py        
 
 Vector   50  Occ=0.000000D+00  E= 2.947230D-01
              MO Center=  8.6D-01,  4.1D-01, -7.9D-02, r^2= 7.9D+00
   Bfn.  Coefficient  Atom+Function         Bfn.  Coefficient  Atom+Function  
  ----- ------------  ---------------      ----- ------------  ---------------
    21      2.807959   2 C  s                60      2.688231   7 C  s         
    54     -2.170915   6 H  s                 6      1.759939   1 C  s         
    20     -1.583161   2 C  s                28      1.411978   2 C  px        
    51     -1.244911   5 H  s                 5     -0.964604   1 C  s         
    53      0.902873   6 H  s                59     -0.905378   7 C  s         
 
 Vector   51  Occ=0.000000D+00  E= 2.999466D-01
              MO Center= -1.4D+00, -1.9D+00,  1.0D-01, r^2= 4.2D+00
   Bfn.  Coefficient  Atom+Function         Bfn.  Coefficient  Atom+Function  
  ----- ------------  ---------------      ----- ------------  ---------------
    93      2.543768  11 H  s                99     -2.549101  13 H  s         
    84     -1.955336   8 C  pz               92     -1.178590  11 H  s         
    98      1.179817  13 H  s                81      1.102657   8 C  pz        
    86      0.537582   9 H  s                89     -0.536243  10 H  s         
    87     -0.519013   9 H  s                90      0.519496  10 H  s         
 
 Vector   52  Occ=0.000000D+00  E= 3.062169D-01
              MO Center= -1.9D-01, -7.7D-01,  5.9D-03, r^2= 8.4D+00
   Bfn.  Coefficient  Atom+Function         Bfn.  Coefficient  Atom+Function  
  ----- ------------  ---------------      ----- ------------  ---------------
    68      3.850770   7 C  py               60     -2.534579   7 C  s         
    82      1.939324   8 C  px               51     -1.824075   5 H  s         
    67      1.816117   7 C  px               28      1.769604   2 C  px        
    54     -1.402154   6 H  s                93      1.368212  11 H  s         
    99      1.361292  13 H  s                21      1.215192   2 C  s         
 
 Vector   53  Occ=0.000000D+00  E= 3.237664D-01
              MO Center=  3.9D-01,  1.2D-01, -3.7D-02, r^2= 9.3D+00
   Bfn.  Coefficient  Atom+Function         Bfn.  Coefficient  Atom+Function  
  ----- ------------  ---------------      ----- ------------  ---------------
    14      4.309022   1 C  py               21      3.535630   2 C  s         
    54     -3.299910   6 H  s                60     -3.116159   7 C  s         
    33     -2.809424   3 H  s                29     -2.624513   2 C  py        
    75      2.235914   8 C  s                 6      2.066468   1 C  s         
    13     -1.851231   1 C  px               28      1.794782   2 C  px        
 
 Vector   54  Occ=0.000000D+00  E= 3.655075D-01
              MO Center= -2.3D-01,  3.8D-01,  3.0D-02, r^2= 7.1D+00
   Bfn.  Coefficient  Atom+Function         Bfn.  Coefficient  Atom+Function  
  ----- ------------  ---------------      ----- ------------  ---------------
     6      5.223813   1 C  s                21     -3.545482   2 C  s         
    75     -2.814394   8 C  s                 5     -2.062326   1 C  s         
    28      1.792532   2 C  px               20      1.453906   2 C  s         
    96      1.436962  12 H  s                74      1.254299   8 C  s         
    46      1.144748   4 O  px               83      1.128191   8 C  py        
 
 Vector   55  Occ=0.000000D+00  E= 3.684999D-01
              MO Center=  5.5D-01,  3.2D-02, -6.8D-02, r^2= 7.7D+00
   Bfn.  Coefficient  Atom+Function         Bfn.  Coefficient  Atom+Function  
  ----- ------------  ---------------      ----- ------------  ---------------
    29      4.652494   2 C  py               51     -2.908888   5 H  s         
    14     -2.467833   1 C  py               75      2.374788   8 C  s         
    68      2.160153   7 C  py               28      2.127324   2 C  px        
    21     -1.887068   2 C  s                13      1.877394   1 C  px        
    33      1.835860   3 H  s                67      1.617433   7 C  px        
 
 Vector   56  Occ=0.000000D+00  E= 3.725644D-01
              MO Center= -7.4D-01,  2.2D-01,  9.1D-02, r^2= 4.0D+00
   Bfn.  Coefficient  Atom+Function         Bfn.  Coefficient  Atom+Function  
  ----- ------------  ---------------      ----- ------------  ---------------
    69      2.985684   7 C  pz               48     -2.337970   4 O  pz        
    87     -1.428145   9 H  s                90      1.418287  10 H  s         
    84     -1.409977   8 C  pz               15      0.755203   1 C  pz        
    93      0.734005  11 H  s                99     -0.720047  13 H  s         
    45      0.694241   4 O  pz               89      0.369780  10 H  s         
 
 Vector   57  Occ=0.000000D+00  E= 4.100249D-01
              MO Center= -2.6D-03,  4.6D-01,  8.1D-03, r^2= 7.5D+00
   Bfn.  Coefficient  Atom+Function         Bfn.  Coefficient  Atom+Function  
  ----- ------------  ---------------      ----- ------------  ---------------
     6      6.377445   1 C  s                21     -5.018867   2 C  s         
    14      2.894104   1 C  py               29     -2.868036   2 C  py        
    28      2.506836   2 C  px               75      2.489923   8 C  s         
    60      2.052162   7 C  s                54     -1.873940   6 H  s         
    13      1.535177   1 C  px               20      1.421277   2 C  s         
 
 Vector   58  Occ=0.000000D+00  E= 4.906525D-01
              MO Center= -9.5D-02,  6.9D-02,  1.0D-02, r^2= 5.9D+00
   Bfn.  Coefficient  Atom+Function         Bfn.  Coefficient  Atom+Function  
  ----- ------------  ---------------      ----- ------------  ---------------
    60      6.649333   7 C  s                21      6.392612   2 C  s         
     6     -5.112493   1 C  s                14      4.944353   1 C  py        
    13     -4.570594   1 C  px               33     -3.745405   3 H  s         
    29     -3.067714   2 C  py               59     -2.269255   7 C  s         
    75     -2.147215   8 C  s                46      1.910172   4 O  px        
 
 Vector   59  Occ=0.000000D+00  E= 5.290290D-01
              MO Center= -8.9D-01,  2.9D-01,  9.3D-02, r^2= 5.9D+00
   Bfn.  Coefficient  Atom+Function         Bfn.  Coefficient  Atom+Function  
  ----- ------------  ---------------      ----- ------------  ---------------
    60      7.948924   7 C  s                75     -5.538524   8 C  s         
    21     -5.199562   2 C  s                13      4.595993   1 C  px        
    47      4.294338   4 O  py               67     -2.212409   7 C  px        
    28      1.641535   2 C  px                6      1.594661   1 C  s         
    29     -1.570109   2 C  py               46     -1.455369   4 O  px        
 
 Vector   60  Occ=0.000000D+00  E= 5.978499D-01
              MO Center= -1.1D+00, -1.4D+00,  8.1D-02, r^2= 5.4D+00
   Bfn.  Coefficient  Atom+Function         Bfn.  Coefficient  Atom+Function  
  ----- ------------  ---------------      ----- ------------  ---------------
    75     10.150962   8 C  s                60     -5.610159   7 C  s         
    68      2.989259   7 C  py               83      2.886154   8 C  py        
    74     -2.598731   8 C  s                47      2.403388   4 O  py        
    67      2.387027   7 C  px               29      2.181569   2 C  py        
    51     -1.580983   5 H  s                92     -1.317162  11 H  s         
 
 Vector   61  Occ=0.000000D+00  E= 9.531033D-01
              MO Center= -3.6D-01,  3.6D-01,  4.2D-02, r^2= 3.1D+00
   Bfn.  Coefficient  Atom+Function         Bfn.  Coefficient  Atom+Function  
  ----- ------------  ---------------      ----- ------------  ---------------
    39      6.745764   4 O  s                60     -4.530576   7 C  s         
    38     -3.204915   4 O  s                 6     -3.183433   1 C  s         
    21      2.731379   2 C  s                29     -2.702279   2 C  py        
    14      2.462999   1 C  py               13     -1.960141   1 C  px        
    46      1.907999   4 O  px               51      1.618655   5 H  s         
 
 Vector   62  Occ=0.000000D+00  E= 1.092015D+00
              MO Center=  7.4D-01,  1.6D+00, -4.6D-02, r^2= 2.0D+00
   Bfn.  Coefficient  Atom+Function         Bfn.  Coefficient  Atom+Function  
  ----- ------------  ---------------      ----- ------------  ---------------
    12      1.110447   1 C  pz               27      1.063523   2 C  pz        
     9     -0.903128   1 C  pz               24     -0.882589   2 C  pz        
    15     -0.504942   1 C  pz               30     -0.476754   2 C  pz        
    87      0.198856   9 H  s                90     -0.198220  10 H  s         
    66      0.180205   7 C  pz               84     -0.144611   8 C  pz        
 
 Vector   63  Occ=0.000000D+00  E= 1.122144D+00
              MO Center=  1.1D-01,  2.0D-01, -7.4D-03, r^2= 4.7D+00
   Bfn.  Coefficient  Atom+Function         Bfn.  Coefficient  Atom+Function  
  ----- ------------  ---------------      ----- ------------  ---------------
    10      1.555380   1 C  px               25      1.474403   2 C  px        
    65     -1.116895   7 C  py               11      1.092168   1 C  py        
    51      1.004424   5 H  s                80     -0.953798   8 C  py        
    29     -0.938450   2 C  py               83      0.870259   8 C  py        
    21     -0.776614   2 C  s                28     -0.715136   2 C  px        
 
 Vector   64  Occ=0.000000D+00  E= 1.140668D+00
              MO Center=  3.8D-01,  4.6D-01, -3.1D-02, r^2= 4.5D+00
   Bfn.  Coefficient  Atom+Function         Bfn.  Coefficient  Atom+Function  
  ----- ------------  ---------------      ----- ------------  ---------------
    10      1.605665   1 C  px               25      1.563532   2 C  px        
    65      1.446825   7 C  py               67     -1.300025   7 C  px        
    68     -1.280353   7 C  py               28     -1.143483   2 C  px        
    54      1.138327   6 H  s                33     -1.013472   3 H  s         
    11     -0.911190   1 C  py               82     -0.897185   8 C  px        
 
 Vector   65  Occ=0.000000D+00  E= 1.152331D+00
              MO Center=  7.2D-01,  1.3D+00, -4.9D-02, r^2= 3.0D+00
   Bfn.  Coefficient  Atom+Function         Bfn.  Coefficient  Atom+Function  
  ----- ------------  ---------------      ----- ------------  ---------------
    27     -1.436294   2 C  pz               12      1.369417   1 C  pz        
    30      0.933365   2 C  pz               15     -0.886295   1 C  pz        
    24      0.876335   2 C  pz                9     -0.811681   1 C  pz        
    66      0.543114   7 C  pz               63     -0.337756   7 C  pz        
    84     -0.276910   8 C  pz               93      0.225719  11 H  s         
 
 Vector   66  Occ=0.000000D+00  E= 1.219002D+00
              MO Center=  6.1D-01,  1.0D+00, -4.3D-02, r^2= 4.7D+00
   Bfn.  Coefficient  Atom+Function         Bfn.  Coefficient  Atom+Function  
  ----- ------------  ---------------      ----- ------------  ---------------
    25      1.368385   2 C  px               68      1.085314   7 C  py        
    82      0.901477   8 C  px               29      0.896343   2 C  py        
    79     -0.897408   8 C  px               54      0.889051   6 H  s         
    65     -0.883023   7 C  py               67      0.855188   7 C  px        
    22     -0.795140   2 C  px               26     -0.756312   2 C  py        
 
 Vector   67  Occ=0.000000D+00  E= 1.241621D+00
              MO Center= -2.2D-01, -1.0D+00,  3.4D-03, r^2= 2.8D+00
   Bfn.  Coefficient  Atom+Function         Bfn.  Coefficient  Atom+Function  
  ----- ------------  ---------------      ----- ------------  ---------------
    69      2.007015   7 C  pz               66     -1.730533   7 C  pz        
    87     -1.445132   9 H  s                90      1.446116  10 H  s         
    81     -1.028944   8 C  pz               63      1.008413   7 C  pz        
    78      0.716765   8 C  pz               84      0.689183   8 C  pz        
    93     -0.683046  11 H  s                99      0.679912  13 H  s         
 
 Vector   68  Occ=0.000000D+00  E= 1.284721D+00
              MO Center= -1.4D-01, -7.3D-01,  1.4D-03, r^2= 3.9D+00
   Bfn.  Coefficient  Atom+Function         Bfn.  Coefficient  Atom+Function  
  ----- ------------  ---------------      ----- ------------  ---------------
    60      2.405307   7 C  s                64     -1.951711   7 C  px        
    10      1.646152   1 C  px               75     -1.153226   8 C  s         
    47      1.049633   4 O  py               21     -1.004481   2 C  s         
    79     -1.001918   8 C  px               80     -0.942999   8 C  py        
    67      0.881797   7 C  px               87     -0.847600   9 H  s         
 
 Vector   69  Occ=0.000000D+00  E= 1.289432D+00
              MO Center=  4.4D-01,  2.5D-01, -4.0D-02, r^2= 5.0D+00
   Bfn.  Coefficient  Atom+Function         Bfn.  Coefficient  Atom+Function  
  ----- ------------  ---------------      ----- ------------  ---------------
    14      1.761776   1 C  py               21      1.688383   2 C  s         
    33     -1.589779   3 H  s                13     -1.328373   1 C  px        
    25     -1.285850   2 C  px               26     -1.165813   2 C  py        
    60     -1.116216   7 C  s                51     -0.963388   5 H  s         
    68      0.872568   7 C  py               28      0.832925   2 C  px        
 
 Vector   70  Occ=0.000000D+00  E= 1.362366D+00
              MO Center= -5.5D-01, -1.7D+00,  2.5D-02, r^2= 2.4D+00
   Bfn.  Coefficient  Atom+Function         Bfn.  Coefficient  Atom+Function  
  ----- ------------  ---------------      ----- ------------  ---------------
    81      2.197152   8 C  pz               84     -1.779805   8 C  pz        
    66     -1.689170   7 C  pz               69      1.347694   7 C  pz        
    93      1.166451  11 H  s                99     -1.167755  13 H  s         
    78     -1.076017   8 C  pz               87     -0.829438   9 H  s         
    90      0.827834  10 H  s                92     -0.773194  11 H  s         
 
 Vector   71  Occ=0.000000D+00  E= 1.379488D+00
              MO Center= -6.3D-01, -1.6D+00,  3.5D-02, r^2= 3.0D+00
   Bfn.  Coefficient  Atom+Function         Bfn.  Coefficient  Atom+Function  
  ----- ------------  ---------------      ----- ------------  ---------------
    79      1.952565   8 C  px               96      1.377390  12 H  s         
    82     -1.265278   8 C  px               80     -1.131129   8 C  py        
    83      1.132047   8 C  py               67      1.086879   7 C  px        
    64     -1.047828   7 C  px               76     -1.023979   8 C  px        
    60     -0.819772   7 C  s                95     -0.773785  12 H  s         
 
 Vector   72  Occ=0.000000D+00  E= 1.471101D+00
              MO Center=  2.8D-01,  1.6D-01, -2.5D-02, r^2= 6.0D+00
   Bfn.  Coefficient  Atom+Function         Bfn.  Coefficient  Atom+Function  
  ----- ------------  ---------------      ----- ------------  ---------------
    29      2.442791   2 C  py               75      2.075967   8 C  s         
    51     -1.964320   5 H  s                26     -1.937303   2 C  py        
    11      1.639010   1 C  py               80      1.342554   8 C  py        
    60     -1.297083   7 C  s                68      1.218478   7 C  py        
     6     -1.165468   1 C  s                14     -1.147817   1 C  py        
 
 Vector   73  Occ=0.000000D+00  E= 1.502955D+00
              MO Center=  3.2D-01,  5.0D-01, -2.3D-02, r^2= 4.1D+00
   Bfn.  Coefficient  Atom+Function         Bfn.  Coefficient  Atom+Function  
  ----- ------------  ---------------      ----- ------------  ---------------
    11      2.007777   1 C  py               68     -1.790268   7 C  py        
    14     -1.702224   1 C  py               26     -1.612645   2 C  py        
    33      1.466261   3 H  s                54      1.322744   6 H  s         
    65      1.142710   7 C  py               32     -1.089108   3 H  s         
    29      1.080839   2 C  py               10     -0.938052   1 C  px        
 
 Vector   74  Occ=0.000000D+00  E= 1.885661D+00
              MO Center=  1.2D+00,  1.1D+00, -1.0D-01, r^2= 5.0D+00
   Bfn.  Coefficient  Atom+Function         Bfn.  Coefficient  Atom+Function  
  ----- ------------  ---------------      ----- ------------  ---------------
    20      2.212370   2 C  s                 5     -1.798783   1 C  s         
    19     -1.527856   2 C  s                53     -1.399561   6 H  s         
     4      1.307784   1 C  s                50     -1.202309   5 H  s         
    21     -0.876622   2 C  s                54      0.834614   6 H  s         
    74     -0.831568   8 C  s                52      0.811719   6 H  s         
 
 Vector   75  Occ=0.000000D+00  E= 1.950580D+00
              MO Center= -1.8D-01, -1.2D+00, -3.6D-03, r^2= 5.4D+00
   Bfn.  Coefficient  Atom+Function         Bfn.  Coefficient  Atom+Function  
  ----- ------------  ---------------      ----- ------------  ---------------
    74     -2.168220   8 C  s                59      2.037880   7 C  s         
    73      1.690273   8 C  s                58     -1.504407   7 C  s         
    92      1.180453  11 H  s                98      1.180292  13 H  s         
    86     -1.079779   9 H  s                89     -1.081906  10 H  s         
    95      0.974831  12 H  s                20     -0.827946   2 C  s         
 
 Vector   76  Occ=0.000000D+00  E= 2.014365D+00
              MO Center= -5.8D-02,  2.0D+00,  4.1D-02, r^2= 3.2D+00
   Bfn.  Coefficient  Atom+Function         Bfn.  Coefficient  Atom+Function  
  ----- ------------  ---------------      ----- ------------  ---------------
     5      2.503662   1 C  s                 4     -1.885167   1 C  s         
    32     -1.869007   3 H  s                14      1.622718   1 C  py        
     6     -1.478005   1 C  s                31      1.129273   3 H  s         
    29     -1.007774   2 C  py               50     -0.853931   5 H  s         
    13     -0.778032   1 C  px               51      0.762092   5 H  s         
 
 Vector   77  Occ=0.000000D+00  E= 2.049757D+00
              MO Center=  8.1D-02, -9.6D-01, -2.6D-02, r^2= 4.1D+00
   Bfn.  Coefficient  Atom+Function         Bfn.  Coefficient  Atom+Function  
  ----- ------------  ---------------      ----- ------------  ---------------
    59      1.976815   7 C  s                58     -1.601057   7 C  s         
     5      1.578914   1 C  s                74      1.556590   8 C  s         
    73     -1.465689   8 C  s                20      1.266041   2 C  s         
     4     -1.240035   1 C  s                68      1.124183   7 C  py        
    86     -1.115307   9 H  s                89     -1.117706  10 H  s         
 
 Vector   78  Occ=0.000000D+00  E= 2.076643D+00
              MO Center=  6.7D-01, -8.9D-01, -8.3D-02, r^2= 2.2D+00
   Bfn.  Coefficient  Atom+Function         Bfn.  Coefficient  Atom+Function  
  ----- ------------  ---------------      ----- ------------  ---------------
    86      1.606763   9 H  s                89     -1.604417  10 H  s         
    85     -1.088208   9 H  s                88      1.087257  10 H  s         
    87     -0.914410   9 H  s                90      0.912704  10 H  s         
    45      0.464609   4 O  pz               84      0.363788   8 C  pz        
    42     -0.313843   4 O  pz               81     -0.243759   8 C  pz        
 
 Vector   79  Occ=0.000000D+00  E= 2.130877D+00
              MO Center= -1.5D+00, -1.8D+00, -4.6D-04, r^2= 2.8D+00
   Bfn.  Coefficient  Atom+Function         Bfn.  Coefficient  Atom+Function  
  ----- ------------  ---------------      ----- ------------  ---------------
    98      1.635748  13 H  s                92     -1.432468  11 H  s         
    97     -1.159881  13 H  s                91      0.993717  11 H  s         
    99     -0.953764  13 H  s                93      0.897617  11 H  s         
    20     -0.546857   2 C  s                 5     -0.498753   1 C  s         
    21      0.447582   2 C  s                19      0.438181   2 C  s         
 
 Vector   80  Occ=0.000000D+00  E= 2.131032D+00
              MO Center=  1.0D-01, -2.8D-01,  1.1D-01, r^2= 7.4D+00
   Bfn.  Coefficient  Atom+Function         Bfn.  Coefficient  Atom+Function  
  ----- ------------  ---------------      ----- ------------  ---------------
    20      2.207423   2 C  s                 5      1.999411   1 C  s         
    21     -1.805259   2 C  s                19     -1.768638   2 C  s         
     4     -1.622957   1 C  s                 6     -1.181370   1 C  s         
    95      1.160038  12 H  s                54      1.077944   6 H  s         
    60      1.002716   7 C  s                59     -0.871008   7 C  s         
 
 Vector   81  Occ=0.000000D+00  E= 2.154138D+00
              MO Center= -2.2D-01, -1.1D+00,  3.0D-03, r^2= 6.5D+00
   Bfn.  Coefficient  Atom+Function         Bfn.  Coefficient  Atom+Function  
  ----- ------------  ---------------      ----- ------------  ---------------
    20      2.363442   2 C  s                21     -1.893442   2 C  s         
    19     -1.831189   2 C  s                95     -1.376252  12 H  s         
    59     -1.205197   7 C  s                58      1.007198   7 C  s         
    94      0.970365  12 H  s                54      0.896679   6 H  s         
    14     -0.870288   1 C  py                5      0.864730   1 C  s         
 
 Vector   82  Occ=0.000000D+00  E= 2.157766D+00
              MO Center=  1.5D+00,  8.7D-01, -1.3D-01, r^2= 3.9D+00
   Bfn.  Coefficient  Atom+Function         Bfn.  Coefficient  Atom+Function  
  ----- ------------  ---------------      ----- ------------  ---------------
    29      2.364466   2 C  py               53      1.702683   6 H  s         
    14     -1.673132   1 C  py               20      1.218614   2 C  s         
    50     -1.197972   5 H  s                52     -1.149014   6 H  s         
    59     -0.953071   7 C  s                21     -0.939414   2 C  s         
    19     -0.903504   2 C  s                75      0.906734   8 C  s         
 
 Vector   83  Occ=0.000000D+00  E= 2.327534D+00
              MO Center= -6.0D-01,  1.6D-01,  6.1D-02, r^2= 1.6D+00
   Bfn.  Coefficient  Atom+Function         Bfn.  Coefficient  Atom+Function  
  ----- ------------  ---------------      ----- ------------  ---------------
    45      1.771483   4 O  pz               69      1.445086   7 C  pz        
    48     -1.342272   4 O  pz               42     -1.138477   4 O  pz        
    84     -0.679143   8 C  pz               87     -0.556892   9 H  s         
    90      0.554710  10 H  s                66     -0.484927   7 C  pz        
    15      0.402845   1 C  pz               85      0.303485   9 H  s         
 
 Vector   84  Occ=0.000000D+00  E= 2.328069D+00
              MO Center=  1.8D-01,  1.7D+00,  1.3D-02, r^2= 2.8D+00
   Bfn.  Coefficient  Atom+Function         Bfn.  Coefficient  Atom+Function  
  ----- ------------  ---------------      ----- ------------  ---------------
     6      4.373907   1 C  s                 5     -3.471976   1 C  s         
    21     -3.052771   2 C  s                 4      2.451985   1 C  s         
    20      2.087252   2 C  s                29     -1.645722   2 C  py        
    14      1.559872   1 C  py               19     -1.459497   2 C  s         
    28      1.111458   2 C  px               32     -1.088987   3 H  s         
 
 Vector   85  Occ=0.000000D+00  E= 2.449247D+00
              MO Center= -1.6D-01,  1.0D-01,  1.7D-02, r^2= 2.7D+00
   Bfn.  Coefficient  Atom+Function         Bfn.  Coefficient  Atom+Function  
  ----- ------------  ---------------      ----- ------------  ---------------
    60      3.642364   7 C  s                59     -2.537136   7 C  s         
    21     -2.433548   2 C  s                 6      2.401469   1 C  s         
    58      1.768050   7 C  s                20      1.585058   2 C  s         
    43      1.483223   4 O  px               13      1.316273   1 C  px        
    46     -1.236516   4 O  px               28      1.073254   2 C  px        
 
 Vector   86  Occ=0.000000D+00  E= 2.512620D+00
              MO Center=  3.2D-01,  7.2D-02, -3.1D-02, r^2= 3.1D+00
   Bfn.  Coefficient  Atom+Function         Bfn.  Coefficient  Atom+Function  
  ----- ------------  ---------------      ----- ------------  ---------------
    21      4.178329   2 C  s                60      3.999366   7 C  s         
    59     -3.147212   7 C  s                 6     -2.549387   1 C  s         
    20     -2.545158   2 C  s                13     -2.421050   1 C  px        
    58      2.227553   7 C  s                14      1.839166   1 C  py        
    19      1.716071   2 C  s                33     -1.670807   3 H  s         
 
 Vector   87  Occ=0.000000D+00  E= 2.569243D+00
              MO Center= -6.1D-01, -1.0D+00,  4.2D-02, r^2= 3.5D+00
   Bfn.  Coefficient  Atom+Function         Bfn.  Coefficient  Atom+Function  
  ----- ------------  ---------------      ----- ------------  ---------------
    75      5.156549   8 C  s                74     -3.665368   8 C  s         
    73      2.470345   8 C  s                47      2.069627   4 O  py        
    68      1.782634   7 C  py               44     -1.281429   4 O  py        
    59     -1.121803   7 C  s                14      1.080370   1 C  py        
    60      1.014107   7 C  s                67      1.008190   7 C  px        
 
 Vector   88  Occ=0.000000D+00  E= 2.675449D+00
              MO Center= -7.8D-01, -9.8D-01,  6.1D-02, r^2= 3.1D+00
   Bfn.  Coefficient  Atom+Function         Bfn.  Coefficient  Atom+Function  
  ----- ------------  ---------------      ----- ------------  ---------------
    75      5.815510   8 C  s                60     -4.895377   7 C  s         
    74     -3.779007   8 C  s                73      2.553886   8 C  s         
    59      2.390157   7 C  s                47     -1.652972   4 O  py        
    67      1.653756   7 C  px               44      1.476366   4 O  py        
    58     -1.466356   7 C  s                68      1.169694   7 C  py        
 
 Vector   89  Occ=0.000000D+00  E= 4.329294D+00
              MO Center= -6.3D-01,  3.4D-01,  6.8D-02, r^2= 9.1D-01
   Bfn.  Coefficient  Atom+Function         Bfn.  Coefficient  Atom+Function  
  ----- ------------  ---------------      ----- ------------  ---------------
    38      5.183237   4 O  s                39     -4.142304   4 O  s         
    37     -3.937278   4 O  s                60      1.896555   7 C  s         
     6      1.415832   1 C  s                14     -1.298417   1 C  py        
    29      1.271851   2 C  py               21     -1.190777   2 C  s         
    36      0.821111   4 O  s                46     -0.765293   4 O  px        
 
 Vector   90  Occ=0.000000D+00  E= 1.113332D+01
              MO Center=  7.2D-01,  1.6D+00, -4.4D-02, r^2= 8.2D-01
   Bfn.  Coefficient  Atom+Function         Bfn.  Coefficient  Atom+Function  
  ----- ------------  ---------------      ----- ------------  ---------------
     3      2.358209   1 C  s                 4     -2.352340   1 C  s         
    18      2.207367   2 C  s                19     -2.192790   2 C  s         
     5      1.889074   1 C  s                20      1.759091   2 C  s         
     2     -1.246680   1 C  s                17     -1.169383   2 C  s         
    21     -0.940488   2 C  s                 6     -0.758180   1 C  s         
 
 Vector   91  Occ=0.000000D+00  E= 1.142206D+01
              MO Center=  1.1D-01, -7.0D-01, -2.4D-02, r^2= 1.3D+00
   Bfn.  Coefficient  Atom+Function         Bfn.  Coefficient  Atom+Function  
  ----- ------------  ---------------      ----- ------------  ---------------
    58     -3.116731   7 C  s                57      2.998091   7 C  s         
    59      2.736142   7 C  s                60     -1.923006   7 C  s         
    56     -1.566202   7 C  s                 4     -0.870701   1 C  s         
     3      0.838017   1 C  s                 5      0.786695   1 C  s         
    19      0.778563   2 C  s                18     -0.767445   2 C  s         
 
 Vector   92  Occ=0.000000D+00  E= 1.151405D+01
              MO Center=  5.8D-01,  1.0D+00, -4.1D-02, r^2= 2.6D+00
   Bfn.  Coefficient  Atom+Function         Bfn.  Coefficient  Atom+Function  
  ----- ------------  ---------------      ----- ------------  ---------------
    19      2.299740   2 C  s                18     -2.205425   2 C  s         
    20     -2.130770   2 C  s                 4     -2.116847   1 C  s         
    21      2.052236   2 C  s                 3      2.023567   1 C  s         
     5      1.985307   1 C  s                 6     -1.825893   1 C  s         
    17      1.150589   2 C  s                73      1.110188   8 C  s         
 
 Vector   93  Occ=0.000000D+00  E= 1.153953D+01
              MO Center= -7.4D-01, -1.8D+00,  4.4D-02, r^2= 1.4D+00
   Bfn.  Coefficient  Atom+Function         Bfn.  Coefficient  Atom+Function  
  ----- ------------  ---------------      ----- ------------  ---------------
    73     -3.176152   8 C  s                72      3.021677   8 C  s         
    74      2.903243   8 C  s                75     -2.591880   8 C  s         
    71     -1.578370   8 C  s                60      1.329885   7 C  s         
    59     -1.154901   7 C  s                58      1.148321   7 C  s         
    57     -1.045413   7 C  s                 4     -0.589719   1 C  s         
 
 Vector   94  Occ=0.000000D+00  E= 2.161854D+01
              MO Center= -6.5D-01,  3.3D-01,  7.0D-02, r^2= 2.1D-01
   Bfn.  Coefficient  Atom+Function         Bfn.  Coefficient  Atom+Function  
[...]
     5      0.924600   1 C  s                33      0.927946   3 H  s         
 
 Vector   83  Occ=0.000000D+00  E= 2.334051D+00
              MO Center=  2.0D-01,  1.7D+00,  9.4D-03, r^2= 2.8D+00
   Bfn.  Coefficient  Atom+Function         Bfn.  Coefficient  Atom+Function  
  ----- ------------  ---------------      ----- ------------  ---------------
     6      4.298493   1 C  s                 5     -3.401041   1 C  s         
    21     -3.101305   2 C  s                 4      2.394682   1 C  s         
    20      2.219902   2 C  s                29     -1.612848   2 C  py        
    19     -1.566339   2 C  s                14      1.529428   1 C  py        
    28      1.081021   2 C  px               32     -1.058909   3 H  s         
 
 Vector   84  Occ=0.000000D+00  E= 2.363274D+00
              MO Center= -6.1D-01,  2.0D-01,  6.4D-02, r^2= 1.5D+00
   Bfn.  Coefficient  Atom+Function         Bfn.  Coefficient  Atom+Function  
  ----- ------------  ---------------      ----- ------------  ---------------
    45      1.785592   4 O  pz               69      1.420975   7 C  pz        
    48     -1.341907   4 O  pz               42     -1.158223   4 O  pz        
    84     -0.660454   8 C  pz               87     -0.570551   9 H  s         
    90      0.570657  10 H  s                66     -0.472655   7 C  pz        
    15      0.406132   1 C  pz               85      0.273482   9 H  s         
 
 Vector   85  Occ=0.000000D+00  E= 2.456491D+00
              MO Center= -1.3D-01,  3.5D-02,  1.3D-02, r^2= 2.7D+00
   Bfn.  Coefficient  Atom+Function         Bfn.  Coefficient  Atom+Function  
  ----- ------------  ---------------      ----- ------------  ---------------
    60      3.879374   7 C  s                59     -2.720446   7 C  s         
     6      2.254528   1 C  s                21     -2.226737   2 C  s         
    58      1.896775   7 C  s                20      1.484124   2 C  s         
    43      1.425451   4 O  px               13      1.187836   1 C  px        
    46     -1.179424   4 O  px               28      1.028332   2 C  px        
 
 Vector   86  Occ=0.000000D+00  E= 2.520642D+00
              MO Center=  3.3D-01,  1.5D-01, -3.1D-02, r^2= 3.2D+00
   Bfn.  Coefficient  Atom+Function         Bfn.  Coefficient  Atom+Function  
  ----- ------------  ---------------      ----- ------------  ---------------
    21      4.358964   2 C  s                60      3.827427   7 C  s         
    59     -3.000787   7 C  s                20     -2.725856   2 C  s         
     6     -2.697917   1 C  s                13     -2.474769   1 C  px        
    58      2.121651   7 C  s                19      1.843195   2 C  s         
    14      1.796983   1 C  py               33     -1.676052   3 H  s         
 
 Vector   87  Occ=0.000000D+00  E= 2.572903D+00
              MO Center= -6.3D-01, -1.1D+00,  4.4D-02, r^2= 3.5D+00
   Bfn.  Coefficient  Atom+Function         Bfn.  Coefficient  Atom+Function  
  ----- ------------  ---------------      ----- ------------  ---------------
    75      5.353490   8 C  s                74     -3.785732   8 C  s         
    73      2.550510   8 C  s                47      2.015126   4 O  py        
    68      1.820108   7 C  py               44     -1.238731   4 O  py        
    67      1.061287   7 C  px               14      1.054302   1 C  py        
    59     -0.998923   7 C  s                92     -0.992323  11 H  s         
 
 Vector   88  Occ=0.000000D+00  E= 2.679436D+00
              MO Center= -7.7D-01, -9.0D-01,  6.1D-02, r^2= 3.1D+00
   Bfn.  Coefficient  Atom+Function         Bfn.  Coefficient  Atom+Function  
  ----- ------------  ---------------      ----- ------------  ---------------
    75      5.629817   8 C  s                60     -4.873081   7 C  s         
    74     -3.654304   8 C  s                73      2.470306   8 C  s         
    59      2.384304   7 C  s                47     -1.719041   4 O  py        
    67      1.619125   7 C  px               44      1.524393   4 O  py        
    58     -1.462490   7 C  s                68      1.109839   7 C  py        
 
 Vector   89  Occ=0.000000D+00  E= 4.351058D+00
              MO Center= -6.3D-01,  3.4D-01,  6.8D-02, r^2= 9.1D-01
   Bfn.  Coefficient  Atom+Function         Bfn.  Coefficient  Atom+Function  
  ----- ------------  ---------------      ----- ------------  ---------------
    38      5.175488   4 O  s                39     -4.130434   4 O  s         
    37     -3.936844   4 O  s                60      1.888711   7 C  s         
     6      1.413328   1 C  s                14     -1.294949   1 C  py        
    29      1.268461   2 C  py               21     -1.189074   2 C  s         
    36      0.821731   4 O  s                46     -0.762592   4 O  px        
 
 Vector   90  Occ=0.000000D+00  E= 1.114170D+01
              MO Center=  6.9D-01,  1.6D+00, -4.2D-02, r^2= 8.2D-01
   Bfn.  Coefficient  Atom+Function         Bfn.  Coefficient  Atom+Function  
  ----- ------------  ---------------      ----- ------------  ---------------
     3      2.404611   1 C  s                 4     -2.401261   1 C  s         
    18      2.157473   2 C  s                19     -2.141765   2 C  s         
     5      1.934901   1 C  s                20      1.711175   2 C  s         
     2     -1.270783   1 C  s                17     -1.142890   2 C  s         
    21     -0.895821   2 C  s                 6     -0.797632   1 C  s         
 
 Vector   91  Occ=0.000000D+00  E= 1.142300D+01
              MO Center=  9.7D-02, -7.5D-01, -2.3D-02, r^2= 1.2D+00
   Bfn.  Coefficient  Atom+Function         Bfn.  Coefficient  Atom+Function  
  ----- ------------  ---------------      ----- ------------  ---------------
    58     -3.149968   7 C  s                57      3.029960   7 C  s         
    59      2.765477   7 C  s                60     -1.945739   7 C  s         
    56     -1.582766   7 C  s                 4     -0.784696   1 C  s         
     3      0.754939   1 C  s                72      0.751987   8 C  s         
    73     -0.733446   8 C  s                19      0.722340   2 C  s         
 
 Vector   92  Occ=0.000000D+00  E= 1.152228D+01
              MO Center=  4.9D-01,  8.0D-01, -3.5D-02, r^2= 3.3D+00
   Bfn.  Coefficient  Atom+Function         Bfn.  Coefficient  Atom+Function  
  ----- ------------  ---------------      ----- ------------  ---------------
    19     -2.273489   2 C  s                18      2.182144   2 C  s         
    20      2.100528   2 C  s                 4      2.012055   1 C  s         
    21     -2.000853   2 C  s                 3     -1.922583   1 C  s         
     5     -1.890112   1 C  s                 6      1.748657   1 C  s         
    73     -1.462720   8 C  s                72      1.412865   8 C  s         
 
 Vector   93  Occ=0.000000D+00  E= 1.154037D+01
              MO Center= -6.1D-01, -1.5D+00,  3.5D-02, r^2= 2.2D+00
   Bfn.  Coefficient  Atom+Function         Bfn.  Coefficient  Atom+Function  
  ----- ------------  ---------------      ----- ------------  ---------------
    73     -3.026679   8 C  s                72      2.877258   8 C  s         
    74      2.773733   8 C  s                75     -2.505112   8 C  s         
    71     -1.502912   8 C  s                60      1.360719   7 C  s         
    58      1.217843   7 C  s                59     -1.212027   7 C  s         
    57     -1.113381   7 C  s                19      0.887296   2 C  s         
 
 Vector   94  Occ=0.000000D+00  E= 2.163835D+01
              MO Center= -6.5D-01,  3.3D-01,  7.0D-02, r^2= 2.1D-01
   Bfn.  Coefficient  Atom+Function         Bfn.  Coefficient  Atom+Function  
  ----- ------------  ---------------      ----- ------------  ---------------
    36      3.325172   4 O  s                37     -3.235041   4 O  s         
    38      2.636593   4 O  s                35     -1.742112   4 O  s         
    39     -1.729075   4 O  s                60      0.703576   7 C  s         
     6      0.559042   1 C  s                14     -0.533760   1 C  py        
    29      0.512238   2 C  py               21     -0.472300   2 C  s         
 
 Vector   95  Occ=0.000000D+00  E= 6.208701D+01
              MO Center=  6.9D-01,  1.5D+00, -4.1D-02, r^2= 5.3D-01
   Bfn.  Coefficient  Atom+Function         Bfn.  Coefficient  Atom+Function  
  ----- ------------  ---------------      ----- ------------  ---------------
     2      2.179470   1 C  s                17      1.949577   2 C  s         
     3     -1.642319   1 C  s                18     -1.464572   2 C  s         
     1     -1.295246   1 C  s                16     -1.160275   2 C  s         
     4      1.062317   1 C  s                19      0.940283   2 C  s         
     5     -0.811974   1 C  s                20     -0.711453   2 C  s         
 
 Vector   96  Occ=0.000000D+00  E= 6.236380D+01
              MO Center=  6.6D-02, -8.1D-01, -2.1D-02, r^2= 7.6D-01
   Bfn.  Coefficient  Atom+Function         Bfn.  Coefficient  Atom+Function  
  ----- ------------  ---------------      ----- ------------  ---------------
    56      2.735088   7 C  s                57     -2.089445   7 C  s         
    55     -1.615649   7 C  s                58      1.410996   7 C  s         
    59     -1.173425   7 C  s                60      0.820244   7 C  s         
    71      0.731521   8 C  s                 2      0.623599   1 C  s         
    72     -0.557203   8 C  s                17     -0.547280   2 C  s         
 
 Vector   97  Occ=0.000000D+00  E= 6.245922D+01
              MO Center=  6.7D-01,  1.2D+00, -4.6D-02, r^2= 1.9D+00
   Bfn.  Coefficient  Atom+Function         Bfn.  Coefficient  Atom+Function  
  ----- ------------  ---------------      ----- ------------  ---------------
    17      2.081451   2 C  s                 2     -1.823874   1 C  s         
    18     -1.594941   2 C  s                 3      1.401309   1 C  s         
    16     -1.226861   2 C  s                19      1.081177   2 C  s         
     1      1.073591   1 C  s                 4     -0.956500   1 C  s         
    20     -0.945858   2 C  s                21      0.894712   2 C  s         
 
 Vector   98  Occ=0.000000D+00  E= 6.248918D+01
              MO Center= -7.5D-01, -1.8D+00,  4.5D-02, r^2= 1.0D+00
   Bfn.  Coefficient  Atom+Function         Bfn.  Coefficient  Atom+Function  
  ----- ------------  ---------------      ----- ------------  ---------------
    71      2.725806   8 C  s                72     -2.083511   8 C  s         
    70     -1.609632   8 C  s                73      1.422737   8 C  s         
    74     -1.232463   8 C  s                75      1.096373   8 C  s         
    56     -0.929869   7 C  s                57      0.713400   7 C  s         
    60     -0.558256   7 C  s                55      0.547881   7 C  s         
 
 Vector   99  Occ=0.000000D+00  E= 1.175719D+02
              MO Center= -6.6D-01,  3.3D-01,  7.1D-02, r^2= 4.5D-02
   Bfn.  Coefficient  Atom+Function         Bfn.  Coefficient  Atom+Function  
  ----- ------------  ---------------      ----- ------------  ---------------
    35      2.970602   4 O  s                36     -2.275873   4 O  s         
    34     -1.756273   4 O  s                37      1.443083   4 O  s         
    38     -1.111310   4 O  s                39      0.732857   4 O  s         
    60     -0.305092   7 C  s                 6     -0.243768   1 C  s         
    14      0.227911   1 C  py               29     -0.218965   2 C  py        
 

   alpha - beta orbital overlaps 
   ----------------------------- 


   alpha      1      2      3      4      5      6      7      8      9     10
    beta      1      2      3      4      5      6      7      8      9     10
 overlap   1.000  1.000  1.000  1.000  1.000  1.000  0.993  0.993  0.998  0.997


   alpha     11     12     13     14     15     16     17     18     19     20
    beta     11     12     13     14     16     15     17     18     19     20
 overlap   0.999  0.998  0.987  0.999  0.985  0.995  0.993  0.995  0.767  0.767


   alpha     21     22     23     24     25     26     27     28     29     30
    beta     21     22     23     24     25     26     27     28     29     30
 overlap   0.995  1.000  0.999  1.000  0.998  0.999  0.999  0.999  0.999  0.999


   alpha     31     32     33     34     35     36     37     38     39     40
    beta     31     32     34     33     35     36     37     38     39     40
 overlap   0.999  0.999  0.989  0.998  0.997  0.977  0.999  0.986  0.972  0.708


   alpha     41     42     43     44     45     46     47     48     49     50
    beta     41     42     43     44     45     46     47     48     49     50
 overlap   0.705  0.994  0.991  0.996  0.996  1.000  0.999  0.998  0.999  0.994


   alpha     51     52     53     54     55     56     57     58     59     60
    beta     51     52     53     54     55     56     57     58     59     60
 overlap   1.000  0.998  0.997  0.879  0.879  0.999  0.997  0.999  0.999  1.000


   alpha     61     62     63     64     65     66     67     68     69     70
    beta     61     62     63     64     65     66     67     68     69     70
 overlap   1.000  0.953  0.997  0.996  0.948  0.999  0.994  0.993  0.992  1.000


   alpha     71     72     73     74     75     76     77     78     79     80
    beta     71     72     73     74     75     76     77     78     79     80
 overlap   1.000  0.998  0.998  0.999  1.000  0.998  0.997  0.999  0.972  0.940


   alpha     81     82     83     84     85     86     87     88     89     90
    beta     82     81     84     83     85     86     87     88     89     90
 overlap   0.790  0.824  0.999  0.999  0.998  0.998  0.999  0.999  1.000  1.000


   alpha     91     92     93     94     95     96     97     98     99
    beta     91     92     93     94     95     96     97     98     99
 overlap   0.999  0.992  0.993  1.000  1.000  1.000  0.999  1.000  1.000

     --------------------------
     Expectation value of S2:  
     --------------------------
      <S2> =      0.7558 (Exact =     0.7500)
 

 center of mass
 --------------
 x =  -0.03293145 y =   0.08508695 z =   0.00471413

 moments of inertia (a.u.)
 ------------------
         563.073500290999        -213.395089639908          15.329249742422
        -213.395089639908         214.967255077048          11.943650903023
          15.329249742422          11.943650903023         752.449194199978
 
     Multipole analysis of the density
     ---------------------------------
 
     L   x y z        total         alpha         beta         nuclear
     -   - - -        -----         -----         ----         -------
     0   0 0 0      1.000000    -20.000000    -19.000000     40.000000
 
     1   1 0 0      1.173322      0.093774      1.079548      0.000000
     1   0 1 0      0.952212     -0.424656      1.376868      0.000000
     1   0 0 1     -0.100504     -0.016533     -0.083971      0.000000
 
     2   2 0 0    -17.009901    -74.265420    -69.512836    126.768355
     2   1 1 0      4.109213    -63.197508    -59.416396    126.723116
     2   1 0 1     -0.388945      4.576878      4.355151     -9.320973
     2   0 2 0     -9.121616   -173.800297   -167.719531    332.398211
     2   0 1 1     -0.189220      3.593353      3.289718     -7.072291
     2   0 0 2    -21.580385    -17.827461    -15.944918     12.191993
 

 Task  times  cpu:        5.5s     wall:        5.8s
 
 
                                NWChem Input Module
                                -------------------
 
 
 Summary of allocated global arrays
-----------------------------------
  No active global arrays



                         GA Statistics for process    0
                         ------------------------------

       create   destroy   get      put      acc     scatter   gather  read&inc
calls:  348      348     3.81e+04 2751     2.70e+04    0        0      468     
number of processes/call 9.56e+00 4.55e+01 6.98e+00 0.00e+00 0.00e+00
bytes total:             6.83e+07 7.64e+06 3.56e+07 0.00e+00 0.00e+00 3.74e+03
bytes remote:            5.87e+07 4.91e+06 3.19e+07 0.00e+00 0.00e+00 0.00e+00
Max memory consumed for GA by this process: 493856 bytes
 
 
 
                                     CITATION
                                     --------
                Please cite the following reference when publishing
                           results obtained with NWChem:
 
          E. Apr, E. J. Bylaska, W. A. de Jong, N. Govind, K. Kowalski,
       T. P. Straatsma, M. Valiev, H. J. J. van Dam, Y. Alexeev, J. Anchell,
       V. Anisimov, F. W. Aquino, R. Atta-Fynn, J. Autschbach, N. P. Bauman,
     J. C. Becca, D. E. Bernholdt, K. Bhaskaran-Nair, S. Bogatko, P. Borowski,
        J. Boschen, J. Brabec, A. Bruner, E. Caut, Y. Chen, G. N. Chuev,
      C. J. Cramer, J. Daily, M. J. O. Deegan, T. H. Dunning Jr., M. Dupuis,
   K. G. Dyall, G. I. Fann, S. A. Fischer, A. Fonari, H. Frchtl, L. Gagliardi,
      J. Garza, N. Gawande, S. Ghosh, K. Glaesemann, A. W. Gtz, J. Hammond,
       V. Helms, E. D. Hermes, K. Hirao, S. Hirata, M. Jacquelin, L. Jensen,
   B. G. Johnson, H. Jnsson, R. A. Kendall, M. Klemm, R. Kobayashi, V. Konkov,
      S. Krishnamoorthy, M. Krishnan, Z. Lin, R. D. Lins, R. J. Littlefield,
      A. J. Logsdail, K. Lopata, W. Ma, A. V. Marenich, J. Martin del Campo,
   D. Mejia-Rodriguez, J. E. Moore, J. M. Mullin, T. Nakajima, D. R. Nascimento,
    J. A. Nichols, P. J. Nichols, J. Nieplocha, A. Otero-de-la-Roza, B. Palmer,
    A. Panyala, T. Pirojsirikul, B. Peng, R. Peverati, J. Pittner, L. Pollack,
   R. M. Richard, P. Sadayappan, G. C. Schatz, W. A. Shelton, D. W. Silverstein,
   D. M. A. Smith, T. A. Soares, D. Song, M. Swart, H. L. Taylor, G. S. Thomas,
            V. Tipparaju, D. G. Truhlar, K. Tsemekhman, T. Van Voorhis,
     . Vzquez-Mayagoitia, P. Verma, O. Villa, A. Vishnu, K. D. Vogiatzis,
        D. Wang, J. H. Weare, M. J. Williamson, T. L. Windus, K. Woliski,
        A. T. Wong, Q. Wu, C. Yang, Q. Yu, M. Zacharias, Z. Zhang, Y. Zhao,
                                and R. J. Harrison
                        "NWChem: Past, present, and future
                         J. Chem. Phys. 152, 184102 (2020)
                               doi:10.1063/5.0004997
 
                                      AUTHORS
                                      -------
     E. Apra, E. J. Bylaska, N. Govind, K. Kowalski, M. Valiev, W. A. de Jong,
      T. P. Straatsma, H. J. J. van Dam, D. Wang, T. L. Windus, N. P. Bauman,
       A. Panyala, J. Hammond, J. Autschbach, K. Bhaskaran-Nair, J. Brabec,
    K. Lopata, S. A. Fischer, S. Krishnamoorthy, M. Jacquelin, W. Ma, M. Klemm,
       O. Villa, Y. Chen, V. Anisimov, F. Aquino, S. Hirata, M. T. Hackler,
           Eric Hermes, L. Jensen, J. E. Moore, J. C. Becca, V. Konjkov,
            D. Mejia-Rodriguez, T. Risthaus, M. Malagoli, A. Marenich,
   A. Otero-de-la-Roza, J. Mullin, P. Nichols, R. Peverati, J. Pittner, Y. Zhao,
        P.-D. Fan, A. Fonari, M. J. Williamson, R. J. Harrison, J. R. Rehr,
      M. Dupuis, D. Silverstein, D. M. A. Smith, J. Nieplocha, V. Tipparaju,
      M. Krishnan, B. E. Van Kuiken, A. Vazquez-Mayagoitia, M. Swart, Q. Wu,
   T. Van Voorhis, A. A. Auer, M. Nooijen, L. D. Crosby, E. Brown, G. Cisneros,
     G. I. Fann, H. Fruchtl, J. Garza, K. Hirao, R. A. Kendall, J. A. Nichols,
       K. Tsemekhman, K. Wolinski, J. Anchell, D. E. Bernholdt, P. Borowski,
       T. Clark, D. Clerc, H. Dachsel, M. J. O. Deegan, K. Dyall, D. Elwood,
      E. Glendening, M. Gutowski, A. C. Hess, J. Jaffe, B. G. Johnson, J. Ju,
        R. Kobayashi, R. Kutteh, Z. Lin, R. Littlefield, X. Long, B. Meng,
      T. Nakajima, S. Niu, L. Pollack, M. Rosing, K. Glaesemann, G. Sandrone,
      M. Stave, H. Taylor, G. Thomas, J. H. van Lenthe, A. T. Wong, Z. Zhang.

 Total times  cpu:        5.6s     wall:        5.9s
