 
             Northwest Computational Chemistry Package (NWChem) 7.0.0
             --------------------------------------------------------
 
 
                    Environmental Molecular Sciences Laboratory
                       Pacific Northwest National Laboratory
                                Richland, WA 99352
 
                              Copyright (c) 1994-2020
                       Pacific Northwest National Laboratory
                            Battelle Memorial Institute
 
             NWChem is an open-source computational chemistry package
                        distributed under the terms of the
                      Educational Community License (ECL) 2.0
             A copy of the license is included with this distribution
                              in the LICENSE.TXT file
 
                                  ACKNOWLEDGMENT
                                  --------------

            This software and its documentation were developed at the
            EMSL at Pacific Northwest National Laboratory, a multiprogram
            national laboratory, operated for the U.S. Department of Energy
            by Battelle under Contract Number DE-AC05-76RL01830. Support
            for this work was provided by the Department of Energy Office
            of Biological and Environmental Research, Office of Basic
            Energy Sciences, and the Office of Advanced Scientific Computing.


                                NWChem Input Module
                                -------------------
 
 
 Summary of "ao basis" -> "" (spherical)
 ------------------------------------------------------------------------------
       Tag                 Description            Shells   Functions and Types
 ---------------- ------------------------------  ------  ---------------------
 *                        ahlrichs_vtz                on all atoms 



 Scaling coordinates for geometry "geometry" by  1.889725989
 (inverse scale =  0.529177249)

 
 
                             Geometry "geometry" -> ""
                             -------------------------
 
 Output coordinates in angstroms (scale by  1.889725989 to convert to a.u.)
 
  No.       Tag          Charge          X              Y              Z
 ---- ---------------- ---------- -------------- -------------- --------------
    1 O                    8.0000     0.00000040    -0.00000060    -0.00000716
    2 H                    1.0000     0.96928937    -0.15553414     0.04424473
    3 H                    1.0000    -0.34721883     0.91486873    -0.09013876
    4 H                    1.0000    -0.62207372    -0.75932981     0.04595131
 
      Atomic Mass 
      ----------- 
 
      O                 15.994910
      H                  1.007825
 

 Effective nuclear repulsion energy (a.u.)      13.8567439160

            Nuclear Dipole moment (a.u.) 
            ----------------------------
        X                 Y               Z
 ---------------- ---------------- ----------------
    -0.0000000000     0.0000000000    -0.0000000000
 
 
            XYZ format geometry
            -------------------
     4
 geometry
 O                     0.00000040    -0.00000060    -0.00000716
 H                     0.96928937    -0.15553414     0.04424473
 H                    -0.34721883     0.91486873    -0.09013876
 H                    -0.62207372    -0.75932981     0.04595131
 
 ==============================================================================
                                internuclear distances
 ------------------------------------------------------------------------------
       center one      |      center two      | atomic units |  angstroms
 ------------------------------------------------------------------------------
    2 H                |   1 O                |     1.85701  |     0.98269
    3 H                |   1 O                |     1.85701  |     0.98269
    4 H                |   1 O                |     1.85700  |     0.98268
 ------------------------------------------------------------------------------
                         number of included internuclear distances:          3
 ==============================================================================



 ==============================================================================
                                 internuclear angles
 ------------------------------------------------------------------------------
        center 1       |       center 2       |       center 3       |  degrees
 ------------------------------------------------------------------------------
    2 H                |   1 O                |   3 H                |   120.00
    2 H                |   1 O                |   4 H                |   120.00
    3 H                |   1 O                |   4 H                |   120.00
 ------------------------------------------------------------------------------
                            number of included internuclear angles:          3
 ==============================================================================



                              Aldehyde and Ketone set
                              -----------------------
 
                                 NWChem DFT Module
                                 -----------------
 
 
                              Aldehyde and Ketone set
 
 
                      Basis "ao basis" -> "ao basis" (spherical)
                      -----
  O (Oxygen)
  ----------
            Exponent  Coefficients 
       -------------- ---------------------------------------------------------
  1 S  1.59026475E+04  0.000515
  1 S  2.38495378E+03  0.003982
  1 S  5.42719572E+02  0.020477
  1 S  1.53404079E+02  0.080262
  1 S  4.95457161E+01  0.237668
 
  2 S  1.73396499E+01  1.000000
 
  3 S  6.33033553E+00  1.000000
 
  4 S  1.69958822E+00  1.000000
 
  5 S  6.89544913E-01  1.000000
 
  6 S  2.39360282E-01  1.000000
 
  7 P  6.32705240E+01  0.006071
  7 P  1.46233123E+01  0.041948
  7 P  4.44895180E+00  0.161569
  7 P  1.52815132E+00  0.356828
 
  8 P  5.29973159E-01  1.000000
 
  9 P  1.75094460E-01  1.000000
 
  H (Hydrogen)
  ------------
            Exponent  Coefficients 
       -------------- ---------------------------------------------------------
  1 S  3.40613410E+01  0.006025
  1 S  5.12357460E+00  0.045021
  1 S  1.16466260E+00  0.201897
 
  2 S  3.27230410E-01  1.000000
 
  3 S  1.03072410E-01  1.000000
 


 Summary of "ao basis" -> "ao basis" (spherical)
 ------------------------------------------------------------------------------
       Tag                 Description            Shells   Functions and Types
 ---------------- ------------------------------  ------  ---------------------
 O                        ahlrichs vtz               9       15   6s3p
 H                        ahlrichs vtz               3        3   3s




 Summary of "ao basis" -> "ao basis" (spherical)
 ------------------------------------------------------------------------------
       Tag                 Description            Shells   Functions and Types
 ---------------- ------------------------------  ------  ---------------------
 O                        ahlrichs vtz               9       15   6s3p
 H                        ahlrichs vtz               3        3   3s


  Caching 1-el integrals 
 
            General Information
            -------------------
          SCF calculation type: DFT
          Wavefunction type:  closed shell.
          No. of atoms     :     4
          No. of electrons :    10
           Alpha electrons :     5
            Beta electrons :     5
          Charge           :     1
          Spin multiplicity:     1
          Use of symmetry is: off; symmetry adaption is: off
          Maximum number of iterations: 999
          This is a Direct SCF calculation.
          AO basis - number of functions:    24
                     number of shells:    18
          Convergence on energy requested:  1.00D-08
          Convergence on density requested:  1.00D-07
          Convergence on gradient requested:  1.00D-06
 
              XC Information
              --------------
                        PBE96 Method XC Functional
          PerdewBurkeErnzerhof Exchange Functional  1.000          
            Perdew 1991 LDA Correlation Functional  1.000 local    
           PerdewBurkeErnz. Correlation Functional  1.000 non-local
 
             Grid Information
             ----------------
          Grid used for XC integration:  fine      
          Radial quadrature: Mura-Knowles        
          Angular quadrature: Lebedev. 
          Tag              B.-S. Rad. Rad. Pts. Rad. Cut. Ang. Pts.
          ---              ---------- --------- --------- ---------
          O                   0.60       70           6.0       590
          H                   0.35       60           8.0       590
          Grid pruning is: on 
          Number of quadrature shells:   250
          Spatial weights used:  Erf1
 
          Convergence Information
          -----------------------
          Convergence aids based upon iterative change in 
          total energy or number of iterations. 
          Levelshifting, if invoked, occurs when the 
          HOMO/LUMO gap drops below (HL_TOL):  1.00D-02
          DIIS, if invoked, will attempt to extrapolate 
          using up to (NFOCK): 10 stored Fock matrices.

                    Damping( 0%)  Levelshifting(0.5)       DIIS
                  --------------- ------------------- ---------------
          dE  on:    start            ASAP                start   
          dE off:    2 iters        999 iters           999 iters 

 
      Screening Tolerance Information
      -------------------------------
          Density screening/tol_rho:  1.00D-12
          AO Gaussian exp screening on grid/accAOfunc:  18
          CD Gaussian exp screening on grid/accCDfunc:  20
          XC Gaussian exp screening on grid/accXCfunc:  20
          Schwarz screening/accCoul:  1.00D-12

      Dispersion Parameters
      ---------------------

           DFT-D3BJ Model   
          s6 scale factor  :        1.000000000000
          s8 scale factor  :        0.787500000000
          a1 parameter     :        0.428900000000
          a2 parameter     :        4.440700000000
              vdW contrib  :       -0.000669498775


 Forcing the number of linearly dependent vectors to be  0
 
      Superposition of Atomic Density Guess
      -------------------------------------
 
 Sum of atomic energies:         -76.28333911
   Time after variat. SCF:      0.2
   Time prior to 1st pass:      0.2

 Grid_pts file          = ./00_H3O.gridpts.00
 Record size in doubles =  12289        No. of grid_pts per rec  =   3070
 Max. records in memory =      5        Max. recs in file   =  67550051

 Grid integrated density:      10.999999970769
 Requested integration accuracy:   0.10E-06

           Memory utilization after 1st SCF pass: 
           Heap Space remaining (MW):        0.00                  12
          Stack Space remaining (MW):      288.36           288358100

   convergence    iter        energy       DeltaE   RMS-Dens  Diis-err    time
 ---------------- ----- ----------------- --------- --------- ---------  ------
 d= 0,ls=0.0,diis     1    -77.0635807235 -9.09D+01  4.41D-02  1.61D+01     0.2
 d= 0,ls=0.0,diis     2    -76.6094273812  4.54D-01  1.40D-02  2.95D-01     0.3
 d= 0,ls=0.0,diis     3    -76.5782068246  3.12D-02  9.65D-03  6.59D-01     0.3
 d= 0,ls=0.0,diis     4    -76.6307236971 -5.25D-02  6.81D-04  2.24D-03     0.3
 d= 0,ls=0.0,diis     5    -76.6309236454 -2.00D-04  2.55D-05  4.57D-06     0.3
 d= 0,ls=0.0,diis     6    -76.6309240210 -3.76D-07  7.03D-07  3.97D-09     0.3
 d= 0,ls=0.0,diis     7    -76.6309240214 -3.14D-10  1.62D-08  4.41D-13     0.4


         Total DFT energy =      -76.630924021357
      One electron energy =     -128.396717202158
           Coulomb energy =       47.227108505068
          Exchange energy =       -8.988032393810
       Correlation energy =       -0.329357347669
 Nuclear repulsion energy =       13.856743915987

    Dispersion correction =       -0.000669498775

 Numeric. integr. density =        9.999999969476

     Total iterative time =      0.2s


 
                       DFT Final Molecular Orbital Analysis
                       ------------------------------------
 
 Vector    1  Occ=2.000000D+00  E=-1.917917D+01
              MO Center=  4.0D-07, -6.0D-07, -7.1D-06, r^2= 1.5D-02
   Bfn.  Coefficient  Atom+Function         Bfn.  Coefficient  Atom+Function  
  ----- ------------  ---------------      ----- ------------  ---------------
     2      0.424520  1 O  s                  3      0.366398  1 O  s          
     1      0.299573  1 O  s                  4      0.054597  1 O  s          
 
 Vector    2  Occ=2.000000D+00  E=-1.346534D+00
              MO Center= -4.4D-07,  1.4D-07,  6.3D-06, r^2= 5.2D-01
   Bfn.  Coefficient  Atom+Function         Bfn.  Coefficient  Atom+Function  
  ----- ------------  ---------------      ----- ------------  ---------------
     5      0.581730  1 O  s                  6      0.281968  1 O  s          
     3     -0.153874  1 O  s                  2     -0.129121  1 O  s          
     4      0.117037  1 O  s                 16      0.080452  2 H  s          
    19      0.080452  3 H  s                 22      0.080453  4 H  s          
     1     -0.068354  1 O  s                 17      0.040755  2 H  s          
 
 Vector    3  Occ=2.000000D+00  E=-8.914112D-01
              MO Center=  1.4D-01,  1.5D-02,  3.1D-03, r^2= 7.2D-01
   Bfn.  Coefficient  Atom+Function         Bfn.  Coefficient  Atom+Function  
  ----- ------------  ---------------      ----- ------------  ---------------
     7      0.386083  1 O  px                10      0.343354  1 O  px         
    16      0.171697  2 H  s                 17      0.144433  2 H  s          
    13      0.128262  1 O  px                 8     -0.116209  1 O  py         
    19     -0.105816  3 H  s                 11     -0.103347  1 O  py         
    20     -0.089013  3 H  s                 22     -0.065881  4 H  s          
 
 Vector    4  Occ=2.000000D+00  E=-8.914108D-01
              MO Center= -1.4D-01, -1.5D-02, -3.1D-03, r^2= 7.2D-01
   Bfn.  Coefficient  Atom+Function         Bfn.  Coefficient  Atom+Function  
  ----- ------------  ---------------      ----- ------------  ---------------
     8      0.385160  1 O  py                11      0.342533  1 O  py         
    22     -0.160222  4 H  s                 19      0.137166  3 H  s          
    23     -0.134780  4 H  s                 14      0.127955  1 O  py         
     7      0.117640  1 O  px                20      0.115385  3 H  s          
    10      0.104620  1 O  px                13      0.039081  1 O  px         
 
 Vector    5  Occ=2.000000D+00  E=-6.562642D-01
              MO Center=  7.9D-07, -1.7D-06, -2.0D-05, r^2= 5.9D-01
   Bfn.  Coefficient  Atom+Function         Bfn.  Coefficient  Atom+Function  
  ----- ------------  ---------------      ----- ------------  ---------------
     9      0.489196  1 O  pz                12      0.429541  1 O  pz         
    15      0.281974  1 O  pz                 8      0.042315  1 O  py         
    11      0.037155  1 O  py         
 
 Vector    6  Occ=0.000000D+00  E=-3.004383D-01
              MO Center= -7.8D-07,  4.6D-06,  2.7D-05, r^2= 3.0D+00
   Bfn.  Coefficient  Atom+Function         Bfn.  Coefficient  Atom+Function  
  ----- ------------  ---------------      ----- ------------  ---------------
     6      0.961724  1 O  s                 18     -0.412070  2 H  s          
    21     -0.412070  3 H  s                 24     -0.412068  4 H  s          
     5      0.341072  1 O  s                 17     -0.296123  2 H  s          
    20     -0.296123  3 H  s                 23     -0.296121  4 H  s          
     4      0.094019  1 O  s                  3     -0.091605  1 O  s          
 
 Vector    7  Occ=0.000000D+00  E=-2.002305D-01
              MO Center= -3.2D-01,  5.3D-01, -5.6D-02, r^2= 3.0D+00
   Bfn.  Coefficient  Atom+Function         Bfn.  Coefficient  Atom+Function  
  ----- ------------  ---------------      ----- ------------  ---------------
    21      1.253225  3 H  s                 24     -0.720539  4 H  s          
    14     -0.604537  1 O  py                18     -0.532689  2 H  s          
    20      0.494195  3 H  s                 11     -0.337013  1 O  py         
     8     -0.296075  1 O  py                23     -0.284137  4 H  s          
    17     -0.210059  2 H  s                 13      0.171250  1 O  px         
 
 Vector    8  Occ=0.000000D+00  E=-2.002303D-01
              MO Center=  3.2D-01, -5.3D-01,  5.6D-02, r^2= 3.0D+00
   Bfn.  Coefficient  Atom+Function         Bfn.  Coefficient  Atom+Function  
  ----- ------------  ---------------      ----- ------------  ---------------
    18      1.139554  2 H  s                 24     -1.031100  4 H  s          
    13     -0.606960  1 O  px                17      0.449370  2 H  s          
    23     -0.406602  4 H  s                 10     -0.338363  1 O  px         
     7     -0.297261  1 O  px                14     -0.172353  1 O  py         
    21     -0.108456  3 H  s                 11     -0.096082  1 O  py         
 
 Vector    9  Occ=0.000000D+00  E= 2.779004D-02
              MO Center=  1.8D-01,  6.9D-02, -4.2D-04, r^2= 2.9D+00
   Bfn.  Coefficient  Atom+Function         Bfn.  Coefficient  Atom+Function  
  ----- ------------  ---------------      ----- ------------  ---------------
    23      1.447916  4 H  s                 14      1.287440  1 O  py         
    20     -1.051746  3 H  s                 24     -0.606621  4 H  s          
    13      0.591935  1 O  px                21      0.440648  3 H  s          
    17     -0.396209  2 H  s                 18      0.166000  2 H  s          
    22      0.114621  4 H  s                 15     -0.092570  1 O  pz         
 
 Vector   10  Occ=0.000000D+00  E= 2.779058D-02
              MO Center= -1.8D-01, -6.9D-02,  3.8D-04, r^2= 2.9D+00
   Bfn.  Coefficient  Atom+Function         Bfn.  Coefficient  Atom+Function  
  ----- ------------  ---------------      ----- ------------  ---------------
    17      1.443190  2 H  s                 13     -1.289989  1 O  px         
    20     -1.064702  3 H  s                 18     -0.604641  2 H  s          
    14      0.586512  1 O  py                21      0.446067  3 H  s          
    23     -0.378470  4 H  s                 24      0.158561  4 H  s          
    16      0.114247  2 H  s                 15     -0.091686  1 O  pz         
 
 Vector   11  Occ=0.000000D+00  E= 4.885187D-02
              MO Center= -2.2D-05, -4.9D-06,  1.1D-04, r^2= 3.2D+00
   Bfn.  Coefficient  Atom+Function         Bfn.  Coefficient  Atom+Function  
  ----- ------------  ---------------      ----- ------------  ---------------
    17      1.026713  2 H  s                 20      1.026721  3 H  s          
    23      1.026754  4 H  s                  6     -0.635790  1 O  s          
    18     -0.616456  2 H  s                 21     -0.616460  3 H  s          
    24     -0.616468  4 H  s                  5     -0.201103  1 O  s          
    16      0.127008  2 H  s                 19      0.127009  3 H  s          
 
 Vector   12  Occ=0.000000D+00  E= 7.804847D-02
              MO Center=  3.2D-06, -8.3D-06, -9.6D-05, r^2= 2.2D+00
   Bfn.  Coefficient  Atom+Function         Bfn.  Coefficient  Atom+Function  
  ----- ------------  ---------------      ----- ------------  ---------------
    15      1.224636  1 O  pz                12     -0.636595  1 O  pz         
     9     -0.322312  1 O  pz                14      0.105929  1 O  py         
    11     -0.055065  1 O  py                13     -0.038878  1 O  px         
     8     -0.027880  1 O  py         
 
 Vector   13  Occ=0.000000D+00  E= 2.200415D-01
              MO Center=  1.3D-01,  3.4D-01, -2.5D-02, r^2= 3.8D+00
   Bfn.  Coefficient  Atom+Function         Bfn.  Coefficient  Atom+Function  
  ----- ------------  ---------------      ----- ------------  ---------------
    21      1.956690  3 H  s                 18     -1.627254  2 H  s          
    14     -1.571569  1 O  py                13      1.405999  1 O  px         
    11      0.533407  1 O  py                10     -0.477210  1 O  px         
    24     -0.329436  4 H  s                  8      0.251328  1 O  py         
     7     -0.224849  1 O  px                15      0.180575  1 O  pz         
 
 Vector   14  Occ=0.000000D+00  E= 2.200417D-01
              MO Center= -1.3D-01, -3.4D-01,  2.5D-02, r^2= 3.8D+00
   Bfn.  Coefficient  Atom+Function         Bfn.  Coefficient  Atom+Function  
  ----- ------------  ---------------      ----- ------------  ---------------
    24      2.069193  4 H  s                 13      1.580493  1 O  px         
    14      1.405774  1 O  py                18     -1.319897  2 H  s          
    21     -0.749296  3 H  s                 10     -0.536436  1 O  px         
    11     -0.477135  1 O  py                 7     -0.252755  1 O  px         
     8     -0.224814  1 O  py                23     -0.119165  4 H  s          
 
 Vector   15  Occ=0.000000D+00  E= 5.262003D-01
              MO Center= -1.4D-07, -2.9D-07,  2.0D-06, r^2= 2.2D+00
   Bfn.  Coefficient  Atom+Function         Bfn.  Coefficient  Atom+Function  
  ----- ------------  ---------------      ----- ------------  ---------------
     6      3.991036  1 O  s                  5     -2.555008  1 O  s          
    17     -0.567287  2 H  s                 20     -0.567288  3 H  s          
    23     -0.567290  4 H  s                 18     -0.398364  2 H  s          
    21     -0.398363  3 H  s                 24     -0.398365  4 H  s          
     4      0.385062  1 O  s                  2      0.114389  1 O  s          
 
 Vector   16  Occ=0.000000D+00  E= 1.698168D+00
              MO Center= -4.4D-06,  2.5D-06,  1.6D-05, r^2= 2.1D+00
   Bfn.  Coefficient  Atom+Function         Bfn.  Coefficient  Atom+Function  
  ----- ------------  ---------------      ----- ------------  ---------------
    17      1.364395  2 H  s                 20      1.364402  3 H  s          
    23      1.364401  4 H  s                 16     -0.868434  2 H  s          
    19     -0.868438  3 H  s                 22     -0.868437  4 H  s          
     6     -0.518528  1 O  s                  5     -0.514777  1 O  s          
    18     -0.417145  2 H  s                 21     -0.417150  3 H  s          
 
 Vector   17  Occ=0.000000D+00  E= 1.723416D+00
              MO Center=  3.8D-01,  3.1D-01, -1.4D-02, r^2= 1.8D+00
   Bfn.  Coefficient  Atom+Function         Bfn.  Coefficient  Atom+Function  
  ----- ------------  ---------------      ----- ------------  ---------------
    17      1.605277  2 H  s                 20     -1.425448  3 H  s          
    18     -0.964672  2 H  s                 16     -0.933528  2 H  s          
    21      0.856608  3 H  s                 19      0.828950  3 H  s          
    10     -0.793884  1 O  px                 7      0.520694  1 O  px         
    11      0.520218  1 O  py                 8     -0.341201  1 O  py         
 
 Vector   18  Occ=0.000000D+00  E= 1.723417D+00
              MO Center= -3.8D-01, -3.1D-01,  1.4D-02, r^2= 1.8D+00
   Bfn.  Coefficient  Atom+Function         Bfn.  Coefficient  Atom+Function  
  ----- ------------  ---------------      ----- ------------  ---------------
    23      1.749790  4 H  s                 24     -1.051518  4 H  s          
    20     -1.030627  3 H  s                 22     -1.017567  4 H  s          
    11      0.792754  1 O  py                17     -0.719166  2 H  s          
    21      0.619344  3 H  s                 19      0.599348  3 H  s          
    10      0.524070  1 O  px                 8     -0.519952  1 O  py         
 
 Vector   19  Occ=0.000000D+00  E= 2.042567D+00
              MO Center=  3.5D-07, -4.7D-07, -5.6D-06, r^2= 8.7D-01
   Bfn.  Coefficient  Atom+Function         Bfn.  Coefficient  Atom+Function  
  ----- ------------  ---------------      ----- ------------  ---------------
    12      1.621583  1 O  pz                 9     -1.192398  1 O  pz         
    15     -0.752844  1 O  pz                11      0.140265  1 O  py         
     8     -0.103141  1 O  py                14     -0.065120  1 O  py         
    10     -0.051480  1 O  px                 7      0.037855  1 O  px         
 
 Vector   20  Occ=0.000000D+00  E= 2.464592D+00
              MO Center=  1.2D-02,  4.9D-03, -4.4D-05, r^2= 1.0D+00
   Bfn.  Coefficient  Atom+Function         Bfn.  Coefficient  Atom+Function  
  ----- ------------  ---------------      ----- ------------  ---------------
    11      1.581812  1 O  py                14     -1.276217  1 O  py         
     8     -0.971907  1 O  py                23     -0.838998  4 H  s          
    22      0.825193  4 H  s                 10      0.733631  1 O  px         
    20      0.606855  3 H  s                 19     -0.596870  3 H  s          
    13     -0.591899  1 O  px                 7     -0.450762  1 O  px         
 
 Vector   21  Occ=0.000000D+00  E= 2.464594D+00
              MO Center= -1.2D-02, -4.9D-03,  2.8D-05, r^2= 1.0D+00
   Bfn.  Coefficient  Atom+Function         Bfn.  Coefficient  Atom+Function  
  ----- ------------  ---------------      ----- ------------  ---------------
    10      1.584919  1 O  px                13     -1.278726  1 O  px         
     7     -0.973816  1 O  px                17      0.834765  2 H  s          
    16     -0.821029  2 H  s                 11     -0.726947  1 O  py         
    20     -0.618424  3 H  s                 19      0.608247  3 H  s          
    14      0.586507  1 O  py                 8      0.446655  1 O  py         
 
 Vector   22  Occ=0.000000D+00  E= 4.021378D+00
              MO Center=  1.7D-07, -5.3D-07, -4.3D-06, r^2= 7.1D-01
   Bfn.  Coefficient  Atom+Function         Bfn.  Coefficient  Atom+Function  
  ----- ------------  ---------------      ----- ------------  ---------------
     5      4.303088  1 O  s                  4     -3.682504  1 O  s          
     6     -2.453838  1 O  s                  3      0.799530  1 O  s          
    17      0.343981  2 H  s                 20      0.343981  3 H  s          
    23      0.343982  4 H  s                 16     -0.218483  2 H  s          
    19     -0.218483  3 H  s                 22     -0.218484  4 H  s          
 
 Vector   23  Occ=0.000000D+00  E= 2.130034D+01
              MO Center=  3.8D-07, -5.8D-07, -6.8D-06, r^2= 1.8D-01
   Bfn.  Coefficient  Atom+Function         Bfn.  Coefficient  Atom+Function  
  ----- ------------  ---------------      ----- ------------  ---------------
     3      3.279738  1 O  s                  4     -3.048036  1 O  s          
     5      2.214144  1 O  s                  2     -1.734533  1 O  s          
     6     -1.004617  1 O  s                  1     -0.180144  1 O  s          
    17      0.093810  2 H  s                 20      0.093810  3 H  s          
    23      0.093810  4 H  s                 18      0.077111  2 H  s          
 
 Vector   24  Occ=0.000000D+00  E= 1.172348D+02
              MO Center=  3.9D-07, -6.0D-07, -7.1D-06, r^2= 3.9D-02
   Bfn.  Coefficient  Atom+Function         Bfn.  Coefficient  Atom+Function  
  ----- ------------  ---------------      ----- ------------  ---------------
     2      2.956772  1 O  s                  3     -2.243250  1 O  s          
     1     -1.754615  1 O  s                  4      1.357359  1 O  s          
     5     -0.929776  1 O  s                  6      0.422817  1 O  s          
    17     -0.038406  2 H  s                 20     -0.038406  3 H  s          
    23     -0.038406  4 H  s                 18     -0.033222  2 H  s          
 

 center of mass
 --------------
 x =   0.00000031 y =  -0.00000047 z =  -0.00000564

 moments of inertia (a.u.)
 ------------------
           5.218387025316          -0.014186860829          -0.164110148979
          -0.014186860829           5.251861720251           0.447136775435
          -0.164110148979           0.447136775435          10.382475308165
 
     Multipole analysis of the density
     ---------------------------------
 
     L   x y z        total         alpha         beta         nuclear
     -   - - -        -----         -----         ----         -------
     0   0 0 0      1.000000     -5.000000     -5.000000     11.000000
 
     1   1 0 0     -0.000003     -0.000002     -0.000002     -0.000000
     1   0 1 0      0.000007      0.000003      0.000003      0.000000
     1   0 0 1      0.000075      0.000038      0.000038     -0.000000
 
     2   2 0 0     -1.562988     -3.365264     -3.365264      5.167539
     2   1 1 0      0.009614     -0.002231     -0.002231      0.014077
     2   1 0 1      0.111212     -0.025812     -0.025812      0.162836
     2   0 2 0     -1.585673     -3.359999     -3.359999      5.134324
     2   0 1 1     -0.303009      0.070328      0.070328     -0.443665
     2   0 0 2     -5.062505     -2.553026     -2.553026      0.043546
 

 Task  times  cpu:        0.2s     wall:        0.3s
 
 
                                NWChem Input Module
                                -------------------
 
 
 Summary of allocated global arrays
-----------------------------------
  No active global arrays



                         GA Statistics for process    0
                         ------------------------------

       create   destroy   get      put      acc     scatter   gather  read&inc
calls:  118      118      539      289      285        0        0      235     
number of processes/call 1.31e+01 7.39e+00 9.41e+00 0.00e+00 0.00e+00
bytes total:             9.83e+05 2.41e+05 4.15e+05 0.00e+00 0.00e+00 1.88e+03
bytes remote:            5.00e+05 7.99e+04 2.27e+05 0.00e+00 0.00e+00 0.00e+00
Max memory consumed for GA by this process: 71160 bytes
 
 
 
                                     CITATION
                                     --------
                Please cite the following reference when publishing
                           results obtained with NWChem:
 
          E. Aprà, E. J. Bylaska, W. A. de Jong, N. Govind, K. Kowalski,
       T. P. Straatsma, M. Valiev, H. J. J. van Dam, Y. Alexeev, J. Anchell,
       V. Anisimov, F. W. Aquino, R. Atta-Fynn, J. Autschbach, N. P. Bauman,
     J. C. Becca, D. E. Bernholdt, K. Bhaskaran-Nair, S. Bogatko, P. Borowski,
        J. Boschen, J. Brabec, A. Bruner, E. Cauët, Y. Chen, G. N. Chuev,
      C. J. Cramer, J. Daily, M. J. O. Deegan, T. H. Dunning Jr., M. Dupuis,
   K. G. Dyall, G. I. Fann, S. A. Fischer, A. Fonari, H. Früchtl, L. Gagliardi,
      J. Garza, N. Gawande, S. Ghosh, K. Glaesemann, A. W. Götz, J. Hammond,
       V. Helms, E. D. Hermes, K. Hirao, S. Hirata, M. Jacquelin, L. Jensen,
   B. G. Johnson, H. Jónsson, R. A. Kendall, M. Klemm, R. Kobayashi, V. Konkov,
      S. Krishnamoorthy, M. Krishnan, Z. Lin, R. D. Lins, R. J. Littlefield,
      A. J. Logsdail, K. Lopata, W. Ma, A. V. Marenich, J. Martin del Campo,
   D. Mejia-Rodriguez, J. E. Moore, J. M. Mullin, T. Nakajima, D. R. Nascimento,
    J. A. Nichols, P. J. Nichols, J. Nieplocha, A. Otero-de-la-Roza, B. Palmer,
    A. Panyala, T. Pirojsirikul, B. Peng, R. Peverati, J. Pittner, L. Pollack,
   R. M. Richard, P. Sadayappan, G. C. Schatz, W. A. Shelton, D. W. Silverstein,
   D. M. A. Smith, T. A. Soares, D. Song, M. Swart, H. L. Taylor, G. S. Thomas,
            V. Tipparaju, D. G. Truhlar, K. Tsemekhman, T. Van Voorhis,
     Á. Vázquez-Mayagoitia, P. Verma, O. Villa, A. Vishnu, K. D. Vogiatzis,
        D. Wang, J. H. Weare, M. J. Williamson, T. L. Windus, K. Woliński,
        A. T. Wong, Q. Wu, C. Yang, Q. Yu, M. Zacharias, Z. Zhang, Y. Zhao,
                                and R. J. Harrison
                        "NWChem: Past, present, and future
                         J. Chem. Phys. 152, 184102 (2020)
                               doi:10.1063/5.0004997
 
                                      AUTHORS
                                      -------
     E. Apra, E. J. Bylaska, N. Govind, K. Kowalski, M. Valiev, W. A. de Jong,
      T. P. Straatsma, H. J. J. van Dam, D. Wang, T. L. Windus, N. P. Bauman,
       A. Panyala, J. Hammond, J. Autschbach, K. Bhaskaran-Nair, J. Brabec,
    K. Lopata, S. A. Fischer, S. Krishnamoorthy, M. Jacquelin, W. Ma, M. Klemm,
       O. Villa, Y. Chen, V. Anisimov, F. Aquino, S. Hirata, M. T. Hackler,
           Eric Hermes, L. Jensen, J. E. Moore, J. C. Becca, V. Konjkov,
            D. Mejia-Rodriguez, T. Risthaus, M. Malagoli, A. Marenich,
   A. Otero-de-la-Roza, J. Mullin, P. Nichols, R. Peverati, J. Pittner, Y. Zhao,
        P.-D. Fan, A. Fonari, M. J. Williamson, R. J. Harrison, J. R. Rehr,
      M. Dupuis, D. Silverstein, D. M. A. Smith, J. Nieplocha, V. Tipparaju,
      M. Krishnan, B. E. Van Kuiken, A. Vazquez-Mayagoitia, M. Swart, Q. Wu,
   T. Van Voorhis, A. A. Auer, M. Nooijen, L. D. Crosby, E. Brown, G. Cisneros,
     G. I. Fann, H. Fruchtl, J. Garza, K. Hirao, R. A. Kendall, J. A. Nichols,
       K. Tsemekhman, K. Wolinski, J. Anchell, D. E. Bernholdt, P. Borowski,
       T. Clark, D. Clerc, H. Dachsel, M. J. O. Deegan, K. Dyall, D. Elwood,
      E. Glendening, M. Gutowski, A. C. Hess, J. Jaffe, B. G. Johnson, J. Ju,
        R. Kobayashi, R. Kutteh, Z. Lin, R. Littlefield, X. Long, B. Meng,
      T. Nakajima, S. Niu, L. Pollack, M. Rosing, K. Glaesemann, G. Sandrone,
      M. Stave, H. Taylor, G. Thomas, J. H. van Lenthe, A. T. Wong, Z. Zhang.

 Total times  cpu:        0.2s     wall:        0.4s
