 
             Northwest Computational Chemistry Package (NWChem) 7.0.0
             --------------------------------------------------------
 
 
                    Environmental Molecular Sciences Laboratory
                       Pacific Northwest National Laboratory
                                Richland, WA 99352
 
                              Copyright (c) 1994-2020
                       Pacific Northwest National Laboratory
                            Battelle Memorial Institute
 
             NWChem is an open-source computational chemistry package
                        distributed under the terms of the
                      Educational Community License (ECL) 2.0
             A copy of the license is included with this distribution
                              in the LICENSE.TXT file
 
                                  ACKNOWLEDGMENT
                                  --------------

            This software and its documentation were developed at the
            EMSL at Pacific Northwest National Laboratory, a multiprogram
            national laboratory, operated for the U.S. Department of Energy
            by Battelle under Contract Number DE-AC05-76RL01830. Support
            for this work was provided by the Department of Energy Office
            of Biological and Environmental Research, Office of Basic
            Energy Sciences, and the Office of Advanced Scientific Computing.


                                NWChem Input Module
                                -------------------
 
 
 Summary of "ao basis" -> "" (spherical)
 ------------------------------------------------------------------------------
       Tag                 Description            Shells   Functions and Types
 ---------------- ------------------------------  ------  ---------------------
 *                        ahlrichs_vtz                on all atoms 



 Scaling coordinates for geometry "geometry" by  1.889725989
 (inverse scale =  0.529177249)

 
 
                             Geometry "geometry" -> ""
                             -------------------------
 
 Output coordinates in angstroms (scale by  1.889725989 to convert to a.u.)
 
  No.       Tag          Charge          X              Y              Z
 ---- ---------------- ---------- -------------- -------------- --------------
    1 C                    6.0000    -0.00062929     0.00968701     0.04501533
    2 O                    8.0000     0.00164820     0.16816179     1.34971209
    3 C                    6.0000    -0.00833477     1.25423520    -0.73049374
    4 C                    6.0000     0.01201573    -1.32785904    -0.57197009
    5 H                    1.0000     0.29595998     2.11739483    -0.12974800
    6 H                    1.0000    -0.25376758    -2.14206659     0.11396808
    7 H                    1.0000     0.60170572     1.15993505    -1.64035759
    8 H                    1.0000    -1.04361142     1.43912077    -1.08567212
    9 H                    1.0000    -0.64356424    -1.35306925    -1.45524131
   10 H                    1.0000     1.03124698    -1.52464363    -0.96094732
   11 H                    1.0000    -0.01946500    -0.65834437     1.90499244
 
      Atomic Mass 
      ----------- 
 
      C                 12.000000
      O                 15.994910
      H                  1.007825
 

 Effective nuclear repulsion energy (a.u.)     127.3264844579

            Nuclear Dipole moment (a.u.) 
            ----------------------------
        X                 Y               Z
 ---------------- ---------------- ----------------
    -0.0000000000     0.0000000000     0.0000000000
 
 
            XYZ format geometry
            -------------------
    11
 geometry
 C                    -0.00062929     0.00968701     0.04501533
 O                     0.00164820     0.16816179     1.34971209
 C                    -0.00833477     1.25423520    -0.73049374
 C                     0.01201573    -1.32785904    -0.57197009
 H                     0.29595998     2.11739483    -0.12974800
 H                    -0.25376758    -2.14206659     0.11396808
 H                     0.60170572     1.15993505    -1.64035759
 H                    -1.04361142     1.43912077    -1.08567212
 H                    -0.64356424    -1.35306925    -1.45524131
 H                     1.03124698    -1.52464363    -0.96094732
 H                    -0.01946500    -0.65834437     1.90499244
 
 ==============================================================================
                                internuclear distances
 ------------------------------------------------------------------------------
       center one      |      center two      | atomic units |  angstroms
 ------------------------------------------------------------------------------
    2 O                |   1 C                |     2.48364  |     1.31429
    3 C                |   1 C                |     2.77112  |     1.46642
    4 C                |   1 C                |     2.78365  |     1.47304
    5 H                |   3 C                |     2.06883  |     1.09478
    6 H                |   4 C                |     2.07361  |     1.09731
    7 H                |   3 C                |     2.07775  |     1.09950
    8 H                |   3 C                |     2.09762  |     1.11001
    9 H                |   4 C                |     2.07920  |     1.10027
   10 H                |   4 C                |     2.09484  |     1.10854
   11 H                |   2 O                |     1.88205  |     0.99594
 ------------------------------------------------------------------------------
                         number of included internuclear distances:         10
 ==============================================================================



 ==============================================================================
                                 internuclear angles
 ------------------------------------------------------------------------------
        center 1       |       center 2       |       center 3       |  degrees
 ------------------------------------------------------------------------------
    2 O                |   1 C                |   3 C                |   115.00
    2 O                |   1 C                |   4 C                |   121.69
    3 C                |   1 C                |   4 C                |   123.31
    1 C                |   2 O                |  11 H                |   116.96
    1 C                |   3 C                |   5 H                |   112.18
    1 C                |   3 C                |   7 H                |   111.22
    1 C                |   3 C                |   8 H                |   108.39
    5 H                |   3 C                |   7 H                |   111.56
    5 H                |   3 C                |   8 H                |   107.67
    7 H                |   3 C                |   8 H                |   105.48
    1 C                |   4 C                |   6 H                |   114.20
    1 C                |   4 C                |   9 H                |   110.61
    1 C                |   4 C                |  10 H                |   108.42
    6 H                |   4 C                |   9 H                |   109.91
    6 H                |   4 C                |  10 H                |   108.08
    9 H                |   4 C                |  10 H                |   105.19
 ------------------------------------------------------------------------------
                            number of included internuclear angles:         16
 ==============================================================================



                              Aldehyde and Ketone set
                              -----------------------
 
                                 NWChem DFT Module
                                 -----------------
 
 
                              Aldehyde and Ketone set
 
 
                      Basis "ao basis" -> "ao basis" (spherical)
                      -----
  C (Carbon)
  ----------
            Exponent  Coefficients 
       -------------- ---------------------------------------------------------
  1 S  8.50603840E+03  0.000534
  1 S  1.27573290E+03  0.004125
  1 S  2.90311870E+02  0.021171
  1 S  8.20562000E+01  0.082418
  1 S  2.64796410E+01  0.240129
 
  2 S  9.24145850E+00  1.000000
 
  3 S  3.36435300E+00  1.000000
 
  4 S  8.71741640E-01  1.000000
 
  5 S  3.63523520E-01  1.000000
 
  6 S  1.28731350E-01  1.000000
 
  7 P  3.47094960E+01  0.005330
  7 P  7.95908830E+00  0.035866
  7 P  2.37869720E+00  0.142003
  7 P  8.15400650E-01  0.342031
 
  8 P  2.89537850E-01  1.000000
 
  9 P  1.00847540E-01  1.000000
 
  O (Oxygen)
  ----------
            Exponent  Coefficients 
       -------------- ---------------------------------------------------------
  1 S  1.59026475E+04  0.000515
  1 S  2.38495378E+03  0.003982
  1 S  5.42719572E+02  0.020477
  1 S  1.53404079E+02  0.080262
  1 S  4.95457161E+01  0.237668
 
  2 S  1.73396499E+01  1.000000
 
  3 S  6.33033553E+00  1.000000
 
  4 S  1.69958822E+00  1.000000
 
  5 S  6.89544913E-01  1.000000
 
  6 S  2.39360282E-01  1.000000
 
  7 P  6.32705240E+01  0.006071
  7 P  1.46233123E+01  0.041948
  7 P  4.44895180E+00  0.161569
  7 P  1.52815132E+00  0.356828
 
  8 P  5.29973159E-01  1.000000
 
  9 P  1.75094460E-01  1.000000
 
  H (Hydrogen)
  ------------
            Exponent  Coefficients 
       -------------- ---------------------------------------------------------
  1 S  3.40613410E+01  0.006025
  1 S  5.12357460E+00  0.045021
  1 S  1.16466260E+00  0.201897
 
  2 S  3.27230410E-01  1.000000
 
  3 S  1.03072410E-01  1.000000
 


 Summary of "ao basis" -> "ao basis" (spherical)
 ------------------------------------------------------------------------------
       Tag                 Description            Shells   Functions and Types
 ---------------- ------------------------------  ------  ---------------------
 C                        ahlrichs vtz               9       15   6s3p
 O                        ahlrichs vtz               9       15   6s3p
 H                        ahlrichs vtz               3        3   3s




 Summary of "ao basis" -> "ao basis" (spherical)
 ------------------------------------------------------------------------------
       Tag                 Description            Shells   Functions and Types
 ---------------- ------------------------------  ------  ---------------------
 C                        ahlrichs vtz               9       15   6s3p
 O                        ahlrichs vtz               9       15   6s3p
 H                        ahlrichs vtz               3        3   3s


  Caching 1-el integrals 
 
            General Information
            -------------------
          SCF calculation type: DFT
          Wavefunction type:  closed shell.
          No. of atoms     :    11
          No. of electrons :    32
           Alpha electrons :    16
            Beta electrons :    16
          Charge           :     1
          Spin multiplicity:     1
          Use of symmetry is: off; symmetry adaption is: off
          Maximum number of iterations: ***
          This is a Direct SCF calculation.
          AO basis - number of functions:    81
                     number of shells:    57
          Convergence on energy requested:  1.00D-08
          Convergence on density requested:  1.00D-07
          Convergence on gradient requested:  1.00D-06
 
              XC Information
              --------------
                        PBE96 Method XC Functional
          PerdewBurkeErnzerhof Exchange Functional  1.000          
            Perdew 1991 LDA Correlation Functional  1.000 local    
           PerdewBurkeErnz. Correlation Functional  1.000 non-local
 
             Grid Information
             ----------------
          Grid used for XC integration:  fine      
          Radial quadrature: Mura-Knowles        
          Angular quadrature: Lebedev. 
          Tag              B.-S. Rad. Rad. Pts. Rad. Cut. Ang. Pts.
          ---              ---------- --------- --------- ---------
          C                   0.70       70          11.0       590
          O                   0.60       70          10.0       590
          H                   0.35       60          12.0       590
          Grid pruning is: on 
          Number of quadrature shells:   700
          Spatial weights used:  Erf1
 
          Convergence Information
          -----------------------
          Convergence aids based upon iterative change in 
          total energy or number of iterations. 
          Levelshifting, if invoked, occurs when the 
          HOMO/LUMO gap drops below (HL_TOL):  1.00D-02
          DIIS, if invoked, will attempt to extrapolate 
          using up to (NFOCK): 10 stored Fock matrices.

                    Damping( 0%)  Levelshifting(0.5)       DIIS
                  --------------- ------------------- ---------------
          dE  on:    start            ASAP                start   
          dE off:    2 iters        *** iters           *** iters 

 
      Screening Tolerance Information
      -------------------------------
          Density screening/tol_rho:  1.00D-12
          AO Gaussian exp screening on grid/accAOfunc:  18
          CD Gaussian exp screening on grid/accCDfunc:  20
          XC Gaussian exp screening on grid/accXCfunc:  20
          Schwarz screening/accCoul:  1.00D-12

      Dispersion Parameters
      ---------------------

           DFT-D3BJ Model   
          s6 scale factor  :        1.000000000000
          s8 scale factor  :        0.787500000000
          a1 parameter     :        0.428900000000
          a2 parameter     :        4.440700000000
              vdW contrib  :       -0.006516858787


 Forcing the number of linearly dependent vectors to be  0
 
      Superposition of Atomic Density Guess
      -------------------------------------
 
 Sum of atomic energies:        -191.29601129
   Time after variat. SCF:      0.1
   Time prior to 1st pass:      0.1

 Grid_pts file          = ./01_CH3COHCH3.gridpts.00
 Record size in doubles =  12289        No. of grid_pts per rec  =   3070
 Max. records in memory =     11        Max. recs in file   =  67550051

 Grid integrated density:      33.000001753904
 Requested integration accuracy:   0.10E-06

           Memory utilization after 1st SCF pass: 
           Heap Space remaining (MW):        0.00                 343
          Stack Space remaining (MW):      288.36           288357636

   convergence    iter        energy       DeltaE   RMS-Dens  Diis-err    time
 ---------------- ----- ----------------- --------- --------- ---------  ------
 d= 0,ls=0.0,diis     1   -194.0514201386 -3.21D+02  3.00D-02  4.73D+01     0.3
 d= 0,ls=0.0,diis     2   -193.1206254567  9.31D-01  1.67D-02  1.13D+00     0.4
 d= 0,ls=0.0,diis     3   -193.0031700282  1.17D-01  9.05D-03  2.14D+00     0.6
 d= 0,ls=0.0,diis     4   -193.2387255352 -2.36D-01  2.45D-03  1.02D-01     0.8
 d= 0,ls=0.0,diis     5   -193.2473494241 -8.62D-03  1.03D-03  1.99D-02     1.0
 d= 0,ls=0.0,diis     6   -193.2492228362 -1.87D-03  2.93D-04  1.05D-03     1.2
 d= 0,ls=0.0,diis     7   -193.2493610228 -1.38D-04  5.47D-05  1.99D-05     1.3
 d= 0,ls=0.0,diis     8   -193.2493640334 -3.01D-06  7.52D-06  1.65D-07     1.5
 d= 0,ls=0.0,diis     9   -193.2493640641 -3.06D-08  1.64D-06  2.68D-08     1.7
 d= 0,ls=0.0,diis    10   -193.2493640671 -3.07D-09  4.83D-07  4.60D-09     1.9
 d= 0,ls=0.0,diis    11   -193.2493640677 -5.82D-10  1.11D-07  4.50D-11     2.0
 d= 0,ls=0.0,diis    12   -193.2493640677 -7.28D-12  2.13D-08  1.39D-12     2.2


         Total DFT energy =     -193.249364067731
      One electron energy =     -505.193715710355
           Coulomb energy =      211.485416842158
          Exchange energy =      -25.819834452478
       Correlation energy =       -1.041198346155
 Nuclear repulsion energy =      127.326484457886

    Dispersion correction =       -0.006516858787

 Numeric. integr. density =       32.000000671436

     Total iterative time =      2.1s


 
                       DFT Final Molecular Orbital Analysis
                       ------------------------------------
 
 Vector    1  Occ=2.000000D+00  E=-1.908018D+01
              MO Center=  1.6D-03,  1.7D-01,  1.3D+00, r^2= 1.5D-02
   Bfn.  Coefficient  Atom+Function         Bfn.  Coefficient  Atom+Function  
  ----- ------------  ---------------      ----- ------------  ---------------
    17      0.424642   2 O  s                18      0.366198   2 O  s         
    16      0.299519   2 O  s                19      0.055352   2 O  s         
 
 Vector    2  Occ=2.000000D+00  E=-1.026965D+01
              MO Center= -6.3D-04,  9.7D-03,  4.5D-02, r^2= 2.8D-02
   Bfn.  Coefficient  Atom+Function         Bfn.  Coefficient  Atom+Function  
  ----- ------------  ---------------      ----- ------------  ---------------
     2      0.424322   1 C  s                 3      0.359597   1 C  s         
     1      0.308817   1 C  s                 4      0.057138   1 C  s         
 
 Vector    3  Occ=2.000000D+00  E=-1.012592D+01
              MO Center=  1.2D-02, -1.3D+00, -5.7D-01, r^2= 2.8D-02
   Bfn.  Coefficient  Atom+Function         Bfn.  Coefficient  Atom+Function  
  ----- ------------  ---------------      ----- ------------  ---------------
    47      0.424209   4 C  s                48      0.359405   4 C  s         
    46      0.308812   4 C  s                49      0.057836   4 C  s         
 
 Vector    4  Occ=2.000000D+00  E=-1.011155D+01
              MO Center= -8.4D-03,  1.3D+00, -7.3D-01, r^2= 2.8D-02
   Bfn.  Coefficient  Atom+Function         Bfn.  Coefficient  Atom+Function  
  ----- ------------  ---------------      ----- ------------  ---------------
    32      0.424199   3 C  s                33      0.359406   3 C  s         
    31      0.308809   3 C  s                34      0.057873   3 C  s         
 
 Vector    5  Occ=2.000000D+00  E=-1.276897D+00
              MO Center= -1.8D-03,  1.2D-02,  1.1D+00, r^2= 5.6D-01
   Bfn.  Coefficient  Atom+Function         Bfn.  Coefficient  Atom+Function  
  ----- ------------  ---------------      ----- ------------  ---------------
    20      0.516060   2 O  s                21      0.261315   2 O  s         
     5      0.194894   1 C  s                18     -0.141494   2 O  s         
    17     -0.117937   2 O  s                19      0.112089   2 O  s         
     9      0.110571   1 C  pz               26     -0.083106   2 O  py        
    23     -0.075734   2 O  py               24     -0.074446   2 O  pz        
 
 Vector    6  Occ=2.000000D+00  E=-9.671307D-01
              MO Center= -4.8D-04, -3.9D-02, -1.5D-01, r^2= 1.9D+00
   Bfn.  Coefficient  Atom+Function         Bfn.  Coefficient  Atom+Function  
  ----- ------------  ---------------      ----- ------------  ---------------
     5      0.355006   1 C  s                50      0.272209   4 C  s         
    35      0.266007   3 C  s                20     -0.169706   2 O  s         
    21     -0.115868   2 O  s                 3     -0.099520   1 C  s         
    24     -0.094761   2 O  pz               51      0.086045   4 C  s         
    36      0.082833   3 C  s                 2     -0.077842   1 C  s         
 
 Vector    7  Occ=2.000000D+00  E=-8.861090D-01
              MO Center=  6.2D-03, -2.9D-01, -3.3D-01, r^2= 2.5D+00
   Bfn.  Coefficient  Atom+Function         Bfn.  Coefficient  Atom+Function  
  ----- ------------  ---------------      ----- ------------  ---------------
    50      0.381352   4 C  s                35     -0.288788   3 C  s         
     8     -0.184201   1 C  py               11     -0.129822   1 C  py        
    48     -0.104062   4 C  s                51      0.094971   4 C  s         
    47     -0.083415   4 C  s                23     -0.082375   2 O  py        
    33      0.079903   3 C  s                24      0.077063   2 O  pz        
 
 Vector    8  Occ=2.000000D+00  E=-8.168373D-01
              MO Center= -1.7D-02,  3.5D-01,  5.9D-01, r^2= 2.4D+00
   Bfn.  Coefficient  Atom+Function         Bfn.  Coefficient  Atom+Function  
  ----- ------------  ---------------      ----- ------------  ---------------
    35      0.298987   3 C  s                24      0.295621   2 O  pz        
    27      0.239543   2 O  pz                5     -0.196201   1 C  s         
     9     -0.180497   1 C  pz               80      0.143075  11 H  s         
    79      0.129994  11 H  s                12     -0.121189   1 C  pz        
    23     -0.119812   2 O  py               26     -0.108908   2 O  py        
 
 Vector    9  Occ=2.000000D+00  E=-6.927954D-01
              MO Center=  1.9D-02, -6.6D-01, -2.6D-01, r^2= 2.6D+00
   Bfn.  Coefficient  Atom+Function         Bfn.  Coefficient  Atom+Function  
  ----- ------------  ---------------      ----- ------------  ---------------
     5      0.284681   1 C  s                50     -0.219972   4 C  s         
    53      0.213929   4 C  py               51     -0.187019   4 C  s         
    23     -0.150666   2 O  py               56      0.134695   4 C  py        
    11     -0.132686   1 C  py               26     -0.127095   2 O  py        
     9     -0.122207   1 C  pz                6      0.116914   1 C  s         
 
 Vector   10  Occ=2.000000D+00  E=-6.581596D-01
              MO Center=  6.0D-03,  6.6D-03,  1.1D-01, r^2= 2.4D+00
   Bfn.  Coefficient  Atom+Function         Bfn.  Coefficient  Atom+Function  
  ----- ------------  ---------------      ----- ------------  ---------------
    22      0.225507   2 O  px                7      0.215092   1 C  px        
    10      0.196341   1 C  px               25      0.195770   2 O  px        
    52      0.143834   4 C  px               37      0.127909   3 C  px        
    36     -0.123341   3 C  s                55      0.122623   4 C  px        
    40      0.110117   3 C  px               28      0.093178   2 O  px        
 
 Vector   11  Occ=2.000000D+00  E=-6.547079D-01
              MO Center= -3.4D-02,  2.5D-01, -5.7D-02, r^2= 2.8D+00
   Bfn.  Coefficient  Atom+Function         Bfn.  Coefficient  Atom+Function  
  ----- ------------  ---------------      ----- ------------  ---------------
    36      0.217639   3 C  s                11     -0.173057   1 C  py        
    38      0.159985   3 C  py               23     -0.154760   2 O  py        
    14     -0.153313   1 C  py               35      0.151593   3 C  s         
     8     -0.148411   1 C  py                9      0.145519   1 C  pz        
    54      0.140892   4 C  pz               26     -0.129198   2 O  py        
 
 Vector   12  Occ=2.000000D+00  E=-5.866986D-01
              MO Center= -1.0D-02, -1.3D-01, -5.6D-01, r^2= 3.3D+00
   Bfn.  Coefficient  Atom+Function         Bfn.  Coefficient  Atom+Function  
  ----- ------------  ---------------      ----- ------------  ---------------
    39      0.239032   3 C  pz               42      0.212537   3 C  pz        
    54      0.195642   4 C  pz               57      0.190206   4 C  pz        
    65      0.139480   6 H  s                68     -0.123955   7 H  s         
    64      0.113445   6 H  s                27      0.111851   2 O  pz        
    24      0.109379   2 O  pz                5      0.108623   1 C  s         
 
 Vector   13  Occ=2.000000D+00  E=-5.744797D-01
              MO Center=  1.1D-01, -8.0D-01, -4.9D-01, r^2= 2.7D+00
   Bfn.  Coefficient  Atom+Function         Bfn.  Coefficient  Atom+Function  
  ----- ------------  ---------------      ----- ------------  ---------------
    52      0.286821   4 C  px               55      0.273443   4 C  px        
    22     -0.188576   2 O  px               77      0.184791  10 H  s         
    25     -0.164607   2 O  px               76      0.144904  10 H  s         
    37     -0.127685   3 C  px               74     -0.124123   9 H  s         
    40     -0.118442   3 C  px               28     -0.104248   2 O  px        
 
 Vector   14  Occ=2.000000D+00  E=-5.634046D-01
              MO Center= -9.5D-02,  7.6D-01, -2.0D-01, r^2= 2.8D+00
   Bfn.  Coefficient  Atom+Function         Bfn.  Coefficient  Atom+Function  
  ----- ------------  ---------------      ----- ------------  ---------------
    22      0.284688   2 O  px               37     -0.250587   3 C  px        
    25      0.246803   2 O  px               40     -0.234204   3 C  px        
    28      0.167070   2 O  px               71      0.157136   8 H  s         
    68     -0.150739   7 H  s                70      0.124101   8 H  s         
    67     -0.114454   7 H  s                43     -0.079302   3 C  px        
 
 Vector   15  Occ=2.000000D+00  E=-5.596449D-01
              MO Center=  1.1D-02,  5.6D-01, -3.9D-01, r^2= 3.3D+00
   Bfn.  Coefficient  Atom+Function         Bfn.  Coefficient  Atom+Function  
  ----- ------------  ---------------      ----- ------------  ---------------
    38      0.189065   3 C  py               39      0.182915   3 C  pz        
    62      0.182025   5 H  s                42      0.172769   3 C  pz        
    41      0.160406   3 C  py               61      0.150368   5 H  s         
    54     -0.138394   4 C  pz               65     -0.130733   6 H  s         
    53      0.126251   4 C  py               57     -0.124440   4 C  pz        
 
 Vector   16  Occ=2.000000D+00  E=-5.475185D-01
              MO Center=  7.0D-03,  6.4D-02,  5.9D-01, r^2= 2.4D+00
   Bfn.  Coefficient  Atom+Function         Bfn.  Coefficient  Atom+Function  
  ----- ------------  ---------------      ----- ------------  ---------------
    23      0.316948   2 O  py               26      0.272399   2 O  py        
     8     -0.214305   1 C  py               53      0.155679   4 C  py        
    56      0.154287   4 C  py               21      0.147429   2 O  s         
    38      0.141232   3 C  py               20      0.139628   2 O  s         
    41      0.139948   3 C  py               14      0.132240   1 C  py        
 
 Vector   17  Occ=0.000000D+00  E=-3.406379D-01
              MO Center= -5.4D-03,  2.9D-02,  6.6D-02, r^2= 2.1D+00
   Bfn.  Coefficient  Atom+Function         Bfn.  Coefficient  Atom+Function  
  ----- ------------  ---------------      ----- ------------  ---------------
    10      0.471024   1 C  px                7      0.431362   1 C  px        
    13      0.328604   1 C  px               22     -0.257693   2 O  px        
    28     -0.258195   2 O  px               25     -0.219526   2 O  px        
    77     -0.153372  10 H  s                71      0.149541   8 H  s         
    72      0.121707   8 H  s                78     -0.114702  10 H  s         
 
 Vector   18  Occ=0.000000D+00  E=-2.093355D-01
              MO Center= -2.5D-02, -8.1D-01,  1.4D+00, r^2= 3.7D+00
   Bfn.  Coefficient  Atom+Function         Bfn.  Coefficient  Atom+Function  
  ----- ------------  ---------------      ----- ------------  ---------------
    81      0.986876  11 H  s                21     -0.655584   2 O  s         
    51     -0.519268   4 C  s                36     -0.400872   3 C  s         
    80      0.368164  11 H  s                66      0.323074   6 H  s         
    75      0.317411   9 H  s                59      0.258072   4 C  py        
    78      0.258051  10 H  s                29      0.238259   2 O  py        
 
 Vector   19  Occ=0.000000D+00  E=-1.490003D-01
              MO Center=  2.2D-02, -2.4D-01, -6.5D-01, r^2= 6.8D+00
   Bfn.  Coefficient  Atom+Function         Bfn.  Coefficient  Atom+Function  
  ----- ------------  ---------------      ----- ------------  ---------------
    51      1.359560   4 C  s                36      1.164740   3 C  s         
    78     -1.022901  10 H  s                72     -0.905881   8 H  s         
    75     -0.704947   9 H  s                81      0.670125  11 H  s         
    69     -0.575878   7 H  s                 6     -0.467948   1 C  s         
    60     -0.332300   4 C  pz               63     -0.327305   5 H  s         
 
 Vector   20  Occ=0.000000D+00  E=-1.225064D-01
              MO Center= -1.5D-01, -1.1D+00,  1.6D-01, r^2= 5.3D+00
   Bfn.  Coefficient  Atom+Function         Bfn.  Coefficient  Atom+Function  
  ----- ------------  ---------------      ----- ------------  ---------------
    66      1.790776   6 H  s                51     -1.079147   4 C  s         
    63      0.746746   5 H  s                60     -0.659515   4 C  pz        
     6     -0.640466   1 C  s                21      0.620532   2 O  s         
    59      0.511512   4 C  py               72     -0.396460   8 H  s         
    12     -0.374778   1 C  pz               30     -0.343149   2 O  pz        
 
 Vector   21  Occ=0.000000D+00  E=-1.036942D-01
              MO Center=  1.7D-01,  2.5D-01, -9.0D-01, r^2= 7.7D+00
   Bfn.  Coefficient  Atom+Function         Bfn.  Coefficient  Atom+Function  
  ----- ------------  ---------------      ----- ------------  ---------------
    36      1.897969   3 C  s                51     -1.714819   4 C  s         
    78      1.111414  10 H  s                63     -0.798834   5 H  s         
    72     -0.794590   8 H  s                69     -0.657011   7 H  s         
    14     -0.499065   1 C  py               75      0.491606   9 H  s         
     6      0.379645   1 C  s                58     -0.345407   4 C  px        
 
 Vector   22  Occ=0.000000D+00  E=-9.702007D-02
              MO Center= -1.9D-01, -8.7D-01, -1.3D+00, r^2= 4.5D+00
   Bfn.  Coefficient  Atom+Function         Bfn.  Coefficient  Atom+Function  
  ----- ------------  ---------------      ----- ------------  ---------------
    75      2.030819   9 H  s                78     -1.278170  10 H  s         
    58      1.221553   4 C  px                6     -1.098714   1 C  s         
    60      0.736971   4 C  pz               44     -0.706458   3 C  py        
    63      0.685757   5 H  s                36      0.665155   3 C  s         
    72     -0.520536   8 H  s                45     -0.393256   3 C  pz        
 
 Vector   23  Occ=0.000000D+00  E=-8.818466D-02
              MO Center=  1.0D-01,  6.4D-01, -1.3D+00, r^2= 4.8D+00
   Bfn.  Coefficient  Atom+Function         Bfn.  Coefficient  Atom+Function  
  ----- ------------  ---------------      ----- ------------  ---------------
    69     -1.884150   7 H  s                 6      1.753589   1 C  s         
    72      1.183814   8 H  s                43      1.013035   3 C  px        
    45     -0.927217   3 C  pz               36     -0.752539   3 C  s         
    59     -0.743861   4 C  py               63      0.501179   5 H  s         
    51     -0.432895   4 C  s                13     -0.417343   1 C  px        
 
 Vector   24  Occ=0.000000D+00  E=-7.753760D-02
              MO Center= -4.0D-02, -8.0D-02, -8.8D-01, r^2= 6.1D+00
   Bfn.  Coefficient  Atom+Function         Bfn.  Coefficient  Atom+Function  
  ----- ------------  ---------------      ----- ------------  ---------------
     6      3.144325   1 C  s                36     -1.210972   3 C  s         
    59     -1.172799   4 C  py               51     -1.051003   4 C  s         
    69      0.917795   7 H  s                44      0.912865   3 C  py        
    72     -0.879844   8 H  s                43     -0.677403   3 C  px        
    60     -0.570403   4 C  pz                5      0.502553   1 C  s         
 
 Vector   25  Occ=0.000000D+00  E=-6.727456D-02
              MO Center=  1.9D-01,  8.3D-01, -1.5D-01, r^2= 7.0D+00
   Bfn.  Coefficient  Atom+Function         Bfn.  Coefficient  Atom+Function  
  ----- ------------  ---------------      ----- ------------  ---------------
    63      2.023004   5 H  s                66     -1.176140   6 H  s         
    78      0.974645  10 H  s                72     -0.960842   8 H  s         
    44     -0.931403   3 C  py               45     -0.789589   3 C  pz        
    69     -0.576471   7 H  s                51      0.543279   4 C  s         
    58     -0.545955   4 C  px               43     -0.517587   3 C  px        
 
 Vector   26  Occ=0.000000D+00  E=-3.095242D-02
              MO Center= -1.0D-01,  4.6D-01, -5.6D-01, r^2= 6.5D+00
   Bfn.  Coefficient  Atom+Function         Bfn.  Coefficient  Atom+Function  
  ----- ------------  ---------------      ----- ------------  ---------------
    60      1.887057   4 C  pz               14      1.809014   1 C  py        
    36     -1.679779   3 C  s                45     -1.531352   3 C  pz        
    44      1.360496   3 C  py               75      1.306537   9 H  s         
    15     -1.242310   1 C  pz               66     -0.913919   6 H  s         
    78      0.750691  10 H  s                69     -0.687072   7 H  s         
 
 Vector   27  Occ=0.000000D+00  E= 2.405549D-04
              MO Center= -4.6D-01, -6.7D-01, -1.3D-01, r^2= 5.4D+00
   Bfn.  Coefficient  Atom+Function         Bfn.  Coefficient  Atom+Function  
  ----- ------------  ---------------      ----- ------------  ---------------
    58      1.542199   4 C  px               59     -1.024647   4 C  py        
    72      0.955373   8 H  s                15     -0.822045   1 C  pz        
    78     -0.804440  10 H  s                45      0.555814   3 C  pz        
    21      0.507844   2 O  s                81      0.502712  11 H  s         
     6     -0.490774   1 C  s                43      0.478491   3 C  px        
 
 Vector   28  Occ=0.000000D+00  E= 6.135421D-03
              MO Center=  5.0D-01, -7.4D-01, -1.4D-02, r^2= 5.4D+00
   Bfn.  Coefficient  Atom+Function         Bfn.  Coefficient  Atom+Function  
  ----- ------------  ---------------      ----- ------------  ---------------
    14      1.507497   1 C  py               60      1.326804   4 C  pz        
    59      0.879282   4 C  py               81     -0.832335  11 H  s         
    66      0.805302   6 H  s                75      0.782066   9 H  s         
    36     -0.764412   3 C  s                51      0.740094   4 C  s         
     6      0.655920   1 C  s                15      0.640163   1 C  pz        
 
 Vector   29  Occ=0.000000D+00  E= 2.766281D-02
              MO Center=  8.5D-02,  6.8D-01, -1.9D-01, r^2= 5.9D+00
   Bfn.  Coefficient  Atom+Function         Bfn.  Coefficient  Atom+Function  
  ----- ------------  ---------------      ----- ------------  ---------------
    43      1.475217   3 C  px               45     -1.011622   3 C  pz        
    69     -0.829338   7 H  s                60     -0.706192   4 C  pz        
    58     -0.647656   4 C  px               44     -0.562910   3 C  py        
    14      0.481524   1 C  py               68     -0.474253   7 H  s         
    15      0.426203   1 C  pz               72      0.427314   8 H  s         
 
 Vector   30  Occ=0.000000D+00  E= 4.616454D-02
              MO Center=  8.1D-02,  6.6D-02, -8.2D-01, r^2= 6.0D+00
   Bfn.  Coefficient  Atom+Function         Bfn.  Coefficient  Atom+Function  
  ----- ------------  ---------------      ----- ------------  ---------------
    15      2.204062   1 C  pz               45     -1.843763   3 C  pz        
    59      1.713199   4 C  py               51      1.527591   4 C  s         
    66      1.159009   6 H  s                69     -1.154519   7 H  s         
    14      1.089014   1 C  py               60     -1.088236   4 C  pz        
    44     -0.880210   3 C  py               21     -0.837298   2 O  s         
 
 Vector   31  Occ=0.000000D+00  E= 7.738431D-02
              MO Center= -1.3D-01, -7.5D-02, -4.2D-01, r^2= 4.9D+00
   Bfn.  Coefficient  Atom+Function         Bfn.  Coefficient  Atom+Function  
  ----- ------------  ---------------      ----- ------------  ---------------
    45      1.723977   3 C  pz               15     -1.557977   1 C  pz        
    66     -1.344159   6 H  s                63     -1.311158   5 H  s         
    60      1.239067   4 C  pz               69      1.218372   7 H  s         
    75      1.050566   9 H  s                51     -0.807177   4 C  s         
     6      0.731770   1 C  s                12     -0.638447   1 C  pz        
 
 Vector   32  Occ=0.000000D+00  E= 8.644692D-02
              MO Center= -5.8D-02,  5.3D-02, -1.1D+00, r^2= 6.2D+00
   Bfn.  Coefficient  Atom+Function         Bfn.  Coefficient  Atom+Function  
  ----- ------------  ---------------      ----- ------------  ---------------
    60      2.520863   4 C  pz               14      2.452382   1 C  py        
    45     -2.340692   3 C  pz               36     -1.604418   3 C  s         
    66     -1.478705   6 H  s                44     -1.369459   3 C  py        
    51      1.351098   4 C  s                59     -1.301750   4 C  py        
    63      1.267977   5 H  s                13     -0.700462   1 C  px        
 
 Vector   33  Occ=0.000000D+00  E= 9.931101D-02
              MO Center= -9.1D-02, -8.6D-04, -2.8D-01, r^2= 6.7D+00
   Bfn.  Coefficient  Atom+Function         Bfn.  Coefficient  Atom+Function  
  ----- ------------  ---------------      ----- ------------  ---------------
    13      2.388021   1 C  px               43     -2.104486   3 C  px        
    58     -2.003986   4 C  px               14      1.847552   1 C  py        
    36     -1.579187   3 C  s                60      1.381364   4 C  pz        
    15     -1.190882   1 C  pz               66     -1.000388   6 H  s         
    78      0.920145  10 H  s                72     -0.830466   8 H  s         
 
 Vector   34  Occ=0.000000D+00  E= 1.034973D-01
              MO Center=  1.1D-01, -1.8D-01,  1.6D-01, r^2= 5.0D+00
   Bfn.  Coefficient  Atom+Function         Bfn.  Coefficient  Atom+Function  
  ----- ------------  ---------------      ----- ------------  ---------------
    15      3.301918   1 C  pz               36      2.199763   3 C  s         
    14     -1.717608   1 C  py               60     -1.176104   4 C  pz        
     6     -1.021183   1 C  s                12     -0.818246   1 C  pz        
    58     -0.762825   4 C  px               13      0.737581   1 C  px        
    44     -0.709890   3 C  py               75     -0.542962   9 H  s         
 
 Vector   35  Occ=0.000000D+00  E= 1.154505D-01
              MO Center= -4.0D-02, -1.8D-01,  9.9D-01, r^2= 6.1D+00
   Bfn.  Coefficient  Atom+Function         Bfn.  Coefficient  Atom+Function  
  ----- ------------  ---------------      ----- ------------  ---------------
    44     -1.704972   3 C  py               15      1.692363   1 C  pz        
    81     -1.564447  11 H  s                63      1.125836   5 H  s         
    80      1.108829  11 H  s                36      1.064179   3 C  s         
    13     -0.771598   1 C  px               58      0.669078   4 C  px        
    69     -0.665576   7 H  s                35     -0.647141   3 C  s         
 
 Vector   36  Occ=0.000000D+00  E= 1.194190D-01
              MO Center= -9.6D-02,  1.1D-01,  7.5D-01, r^2= 5.2D+00
   Bfn.  Coefficient  Atom+Function         Bfn.  Coefficient  Atom+Function  
  ----- ------------  ---------------      ----- ------------  ---------------
    14      5.571083   1 C  py               36     -2.948492   3 C  s         
    51      2.602290   4 C  s                60      1.629491   4 C  pz        
    45     -1.578160   3 C  pz               75      1.527705   9 H  s         
    44      0.975685   3 C  py               69     -0.961114   7 H  s         
    78      0.823900  10 H  s                13     -0.814615   1 C  px        
 
 Vector   37  Occ=0.000000D+00  E= 2.130745D-01
              MO Center=  1.3D-02, -1.4D-01,  1.1D-01, r^2= 6.3D+00
   Bfn.  Coefficient  Atom+Function         Bfn.  Coefficient  Atom+Function  
  ----- ------------  ---------------      ----- ------------  ---------------
    14      5.427308   1 C  py               51      2.608304   4 C  s         
    59      2.427863   4 C  py               44      1.779281   3 C  py        
    66      1.590839   6 H  s                63     -1.485340   5 H  s         
    36     -1.412807   3 C  s                60      1.367895   4 C  pz        
    45     -1.354819   3 C  pz               72     -1.165861   8 H  s         
 
 Vector   38  Occ=0.000000D+00  E= 2.278189D-01
              MO Center=  6.3D-01, -1.4D+00, -1.1D+00, r^2= 4.3D+00
   Bfn.  Coefficient  Atom+Function         Bfn.  Coefficient  Atom+Function  
  ----- ------------  ---------------      ----- ------------  ---------------
    78      3.467252  10 H  s                58     -2.636387   4 C  px        
    75     -2.253480   9 H  s                77     -1.281382  10 H  s         
    55      1.026974   4 C  px               74      0.854224   9 H  s         
    14      0.827521   1 C  py               66     -0.812205   6 H  s         
    13      0.777105   1 C  px               45     -0.635010   3 C  pz        
 
 Vector   39  Occ=0.000000D+00  E= 2.353829D-01
              MO Center= -5.4D-01,  1.2D+00, -1.1D+00, r^2= 5.0D+00
   Bfn.  Coefficient  Atom+Function         Bfn.  Coefficient  Atom+Function  
  ----- ------------  ---------------      ----- ------------  ---------------
    72      3.098983   8 H  s                69     -2.546263   7 H  s         
    43      2.461039   3 C  px               14      1.286529   1 C  py        
    71     -1.292534   8 H  s                63     -1.070015   5 H  s         
    66      1.055029   6 H  s                40     -1.023313   3 C  px        
    59      0.810669   4 C  py               68      0.752967   7 H  s         
 
 Vector   40  Occ=0.000000D+00  E= 2.537588D-01
              MO Center= -2.6D-01, -1.4D+00,  6.6D-02, r^2= 4.7D+00
   Bfn.  Coefficient  Atom+Function         Bfn.  Coefficient  Atom+Function  
  ----- ------------  ---------------      ----- ------------  ---------------
    66      2.798372   6 H  s                65     -1.352094   6 H  s         
    75     -1.323924   9 H  s                60     -1.259441   4 C  pz        
    59      1.012142   4 C  py               36     -0.988617   3 C  s         
    14      0.973756   1 C  py               57      0.818539   4 C  pz        
    50      0.728696   4 C  s                72     -0.611321   8 H  s         
 
 Vector   41  Occ=0.000000D+00  E= 2.667007D-01
              MO Center=  2.1D-01,  4.8D-01, -8.3D-01, r^2= 5.7D+00
   Bfn.  Coefficient  Atom+Function         Bfn.  Coefficient  Atom+Function  
  ----- ------------  ---------------      ----- ------------  ---------------
     6      2.718822   1 C  s                69      2.300514   7 H  s         
    36     -1.532664   3 C  s                45      1.502882   3 C  pz        
    63     -1.485893   5 H  s                51     -1.156164   4 C  s         
    68     -1.057893   7 H  s                30      0.994957   2 O  pz        
    78     -0.848543  10 H  s                42     -0.806737   3 C  pz        
 
 Vector   42  Occ=0.000000D+00  E= 2.719942D-01
              MO Center=  2.3D-02, -5.0D-01, -7.7D-01, r^2= 6.5D+00
   Bfn.  Coefficient  Atom+Function         Bfn.  Coefficient  Atom+Function  
  ----- ------------  ---------------      ----- ------------  ---------------
    51      2.380649   4 C  s                75     -1.891909   9 H  s         
     6      1.771973   1 C  s                50     -1.685151   4 C  s         
    78     -1.398832  10 H  s                63     -1.278337   5 H  s         
    59     -1.123275   4 C  py               60     -1.049230   4 C  pz        
    74      0.884397   9 H  s                35     -0.850770   3 C  s         
 
 Vector   43  Occ=0.000000D+00  E= 2.840661D-01
              MO Center=  3.6D-02,  1.1D-01,  8.7D-01, r^2= 4.8D+00
   Bfn.  Coefficient  Atom+Function         Bfn.  Coefficient  Atom+Function  
  ----- ------------  ---------------      ----- ------------  ---------------
    28     -1.717668   2 O  px               13      1.575983   1 C  px        
    59     -1.142553   4 C  py               63      1.112385   5 H  s         
    14     -1.080386   1 C  py               66     -1.037937   6 H  s         
     6      0.993423   1 C  s                44     -0.836582   3 C  py        
    36      0.749885   3 C  s                69     -0.742748   7 H  s         
 
 Vector   44  Occ=0.000000D+00  E= 2.858187D-01
              MO Center= -9.2D-02,  4.2D-01, -5.3D-01, r^2= 4.9D+00
   Bfn.  Coefficient  Atom+Function         Bfn.  Coefficient  Atom+Function  
  ----- ------------  ---------------      ----- ------------  ---------------
     6      6.941813   1 C  s                 5     -2.697183   1 C  s         
    15     -1.711913   1 C  pz               44      1.596977   3 C  py        
    45     -1.582250   3 C  pz               72     -1.580715   8 H  s         
    14      1.367603   1 C  py               69     -1.358539   7 H  s         
    36     -0.958641   3 C  s                59     -0.551654   4 C  py        
 
 Vector   45  Occ=0.000000D+00  E= 2.963898D-01
              MO Center= -7.5D-03,  1.2D+00, -4.6D-01, r^2= 5.8D+00
   Bfn.  Coefficient  Atom+Function         Bfn.  Coefficient  Atom+Function  
  ----- ------------  ---------------      ----- ------------  ---------------
    63      2.711030   5 H  s                14     -2.085172   1 C  py        
    44     -1.940725   3 C  py               36     -1.814563   3 C  s         
    35      1.670279   3 C  s                75     -1.603398   9 H  s         
    72      1.108913   8 H  s                59     -1.044703   4 C  py        
    62     -1.036263   5 H  s                78     -0.832724  10 H  s         
 
 Vector   46  Occ=0.000000D+00  E= 3.325521D-01
              MO Center=  2.7D-02, -6.1D-02,  1.0D+00, r^2= 6.1D+00
   Bfn.  Coefficient  Atom+Function         Bfn.  Coefficient  Atom+Function  
  ----- ------------  ---------------      ----- ------------  ---------------
    51      2.124825   4 C  s                14      2.083824   1 C  py        
    66     -2.006037   6 H  s                30     -1.854655   2 O  pz        
    81      1.857538  11 H  s                36     -1.586931   3 C  s         
    15     -1.323997   1 C  pz               59     -1.304037   4 C  py        
    69      0.994661   7 H  s                43     -0.847097   3 C  px        
 
 Vector   47  Occ=0.000000D+00  E= 4.049615D-01
              MO Center=  3.7D-02, -3.2D-02,  3.8D-02, r^2= 5.9D+00
   Bfn.  Coefficient  Atom+Function         Bfn.  Coefficient  Atom+Function  
  ----- ------------  ---------------      ----- ------------  ---------------
    36     -6.276518   3 C  s                 6      6.060920   1 C  s         
    51     -4.570190   4 C  s                14      2.700133   1 C  py        
    29     -1.873487   2 O  py               50      1.581530   4 C  s         
    45     -1.030454   3 C  pz               63      1.017362   5 H  s         
    35      0.973874   3 C  s                66      0.904506   6 H  s         
 
 Vector   48  Occ=0.000000D+00  E= 4.944856D-01
              MO Center= -4.2D-02,  6.3D-01,  4.4D-01, r^2= 5.3D+00
   Bfn.  Coefficient  Atom+Function         Bfn.  Coefficient  Atom+Function  
  ----- ------------  ---------------      ----- ------------  ---------------
     6      6.952312   1 C  s                51     -5.461900   4 C  s         
    36     -4.468931   3 C  s                14     -3.841015   1 C  py        
    29      2.960408   2 O  py               15     -1.734280   1 C  pz        
    35      1.662360   3 C  s                 5     -1.441206   1 C  s         
    59     -1.439809   4 C  py               80      1.351332  11 H  s         
 
 Vector   49  Occ=0.000000D+00  E= 5.752451D-01
              MO Center= -3.7D-03, -1.6D-01, -6.4D-01, r^2= 6.5D+00
   Bfn.  Coefficient  Atom+Function         Bfn.  Coefficient  Atom+Function  
  ----- ------------  ---------------      ----- ------------  ---------------
    51     11.878195   4 C  s                36    -10.516904   3 C  s         
    14     10.340845   1 C  py               59      3.400793   4 C  py        
    44      2.735016   3 C  py               50     -2.372725   4 C  s         
    45     -2.267467   3 C  pz               35      2.152463   3 C  s         
    60      2.059531   4 C  pz               29     -2.021872   2 O  py        
 
 Vector   50  Occ=0.000000D+00  E= 8.598325D-01
              MO Center= -3.4D-03,  2.0D-01,  1.0D+00, r^2= 2.9D+00
   Bfn.  Coefficient  Atom+Function         Bfn.  Coefficient  Atom+Function  
  ----- ------------  ---------------      ----- ------------  ---------------
    21      6.024778   2 O  s                20     -2.984137   2 O  s         
    15     -2.806521   1 C  pz                6     -2.091779   1 C  s         
    36     -1.420524   3 C  s                30     -1.299589   2 O  pz        
    80     -0.855599  11 H  s                12     -0.829471   1 C  pz        
    60      0.810429   4 C  pz               81      0.785291  11 H  s         
 
 Vector   51  Occ=0.000000D+00  E= 1.086790D+00
              MO Center= -2.6D-02, -8.4D-02, -1.4D-01, r^2= 2.5D+00
   Bfn.  Coefficient  Atom+Function         Bfn.  Coefficient  Atom+Function  
  ----- ------------  ---------------      ----- ------------  ---------------
    12      2.156883   1 C  pz               21     -1.174261   2 O  s         
     6      0.885690   1 C  s                 9     -0.889780   1 C  pz        
    57      0.776686   4 C  pz               42      0.759823   3 C  pz        
    41     -0.680413   3 C  py               51      0.638973   4 C  s         
    45     -0.623342   3 C  pz               54     -0.614213   4 C  pz        
 
 Vector   52  Occ=0.000000D+00  E= 1.098214D+00
              MO Center=  2.8D-02, -4.6D-02, -3.1D-02, r^2= 1.8D+00
   Bfn.  Coefficient  Atom+Function         Bfn.  Coefficient  Atom+Function  
  ----- ------------  ---------------      ----- ------------  ---------------
    10      1.594985   1 C  px                7     -1.155455   1 C  px        
    13     -1.065091   1 C  px               55      0.395178   4 C  px        
    52     -0.375718   4 C  px               72     -0.346269   8 H  s         
    78      0.340513  10 H  s                14      0.336773   1 C  py        
    37     -0.308931   3 C  px               40      0.280332   3 C  px        
 
 Vector   53  Occ=0.000000D+00  E= 1.174268D+00
              MO Center=  1.9D-04, -2.2D-02, -3.3D-01, r^2= 3.0D+00
   Bfn.  Coefficient  Atom+Function         Bfn.  Coefficient  Atom+Function  
  ----- ------------  ---------------      ----- ------------  ---------------
    11      2.672191   1 C  py               51      2.119186   4 C  s         
    56      1.633199   4 C  py               36     -1.450282   3 C  s         
    41      1.441733   3 C  py               44     -1.042325   3 C  py        
    59     -0.928585   4 C  py                8     -0.869540   1 C  py        
    63      0.737566   5 H  s                21      0.724104   2 O  s         
 
 Vector   54  Occ=0.000000D+00  E= 1.206600D+00
              MO Center= -1.3D-02, -1.8D-01, -5.6D-01, r^2= 3.4D+00
   Bfn.  Coefficient  Atom+Function         Bfn.  Coefficient  Atom+Function  
  ----- ------------  ---------------      ----- ------------  ---------------
    56      1.212180   4 C  py               55     -1.197385   4 C  px        
    40      1.104691   3 C  px               41     -0.940366   3 C  py        
    58      0.902125   4 C  px                5     -0.889239   1 C  s         
    15      0.819119   1 C  pz               43     -0.790481   3 C  px        
    21     -0.703894   2 O  s                52      0.700200   4 C  px        
 
 Vector   55  Occ=0.000000D+00  E= 1.229011D+00
              MO Center=  1.9D-03, -8.2D-02, -6.9D-01, r^2= 3.5D+00
   Bfn.  Coefficient  Atom+Function         Bfn.  Coefficient  Atom+Function  
  ----- ------------  ---------------      ----- ------------  ---------------
    41      1.390202   3 C  py               56     -1.337141   4 C  py        
    55     -1.157239   4 C  px               58      1.013568   4 C  px        
     5      1.003277   1 C  s                40      1.003274   3 C  px        
    63      0.911848   5 H  s                43     -0.883063   3 C  px        
    36     -0.847615   3 C  s                15     -0.835451   1 C  pz        
 
 Vector   56  Occ=0.000000D+00  E= 1.294548D+00
              MO Center=  1.3D-02,  3.9D-02, -5.9D-01, r^2= 3.5D+00
   Bfn.  Coefficient  Atom+Function         Bfn.  Coefficient  Atom+Function  
  ----- ------------  ---------------      ----- ------------  ---------------
    42      1.699099   3 C  pz               57     -1.680380   4 C  pz        
    36      1.244886   3 C  s                45     -1.035420   3 C  pz        
    60      0.958182   4 C  pz               14     -0.916605   1 C  py        
    39     -0.907377   3 C  pz               54      0.876960   4 C  pz        
    63      0.821311   5 H  s                51     -0.760147   4 C  s         
 
 Vector   57  Occ=0.000000D+00  E= 1.322617D+00
              MO Center=  1.3D-02,  7.5D-02, -4.7D-01, r^2= 3.5D+00
   Bfn.  Coefficient  Atom+Function         Bfn.  Coefficient  Atom+Function  
  ----- ------------  ---------------      ----- ------------  ---------------
    40      1.794469   3 C  px               43     -1.718961   3 C  px        
    55      1.638215   4 C  px               58     -1.632350   4 C  px        
    13      1.171053   1 C  px               72     -1.170771   8 H  s         
    10     -1.102146   1 C  px               78      1.081686  10 H  s         
    75     -1.030493   9 H  s                69      0.974372   7 H  s         
 
 Vector   58  Occ=0.000000D+00  E= 1.444380D+00
              MO Center= -7.2D-03, -4.4D-02, -5.0D-01, r^2= 3.3D+00
   Bfn.  Coefficient  Atom+Function         Bfn.  Coefficient  Atom+Function  
  ----- ------------  ---------------      ----- ------------  ---------------
    12      2.465731   1 C  pz               57     -1.594988   4 C  pz        
    42     -1.554312   3 C  pz               15     -1.485491   1 C  pz        
    60      1.465787   4 C  pz               45      1.369451   3 C  pz        
    66     -1.263930   6 H  s                69      1.177808   7 H  s         
    63     -0.996228   5 H  s                75      0.988281   9 H  s         
 
 Vector   59  Occ=0.000000D+00  E= 1.488382D+00
              MO Center=  1.7D-03,  1.1D-01, -2.7D-01, r^2= 2.9D+00
   Bfn.  Coefficient  Atom+Function         Bfn.  Coefficient  Atom+Function  
  ----- ------------  ---------------      ----- ------------  ---------------
    11      1.985836   1 C  py               14     -1.138363   1 C  py        
    41     -1.071158   3 C  py               66      1.073882   6 H  s         
    63     -1.059237   5 H  s                59      0.988383   4 C  py        
    44      0.955495   3 C  py                8     -0.919966   1 C  py        
    45      0.920618   3 C  pz               50      0.898614   4 C  s         
 
 Vector   60  Occ=0.000000D+00  E= 1.799414D+00
              MO Center= -1.0D-02, -6.7D-01,  1.8D+00, r^2= 1.6D+00
   Bfn.  Coefficient  Atom+Function         Bfn.  Coefficient  Atom+Function  
  ----- ------------  ---------------      ----- ------------  ---------------
    80      2.259355  11 H  s                79     -1.252709  11 H  s         
    81     -1.148844  11 H  s                26      0.731086   2 O  py        
     5      0.670202   1 C  s                50     -0.560052   4 C  s         
    21     -0.543790   2 O  s                23     -0.524450   2 O  py        
     4     -0.468213   1 C  s                15      0.436999   1 C  pz        
 
 Vector   61  Occ=0.000000D+00  E= 1.870108D+00
              MO Center= -2.5D-03, -9.5D-02, -6.5D-01, r^2= 4.8D+00
   Bfn.  Coefficient  Atom+Function         Bfn.  Coefficient  Atom+Function  
  ----- ------------  ---------------      ----- ------------  ---------------
    50     -2.013275   4 C  s                35     -1.932555   3 C  s         
     5      1.914601   1 C  s                49      1.511517   4 C  s         
    34      1.419597   3 C  s                 4     -1.294955   1 C  s         
    77      1.079176  10 H  s                71      1.044733   8 H  s         
    65      0.996222   6 H  s                62      0.968765   5 H  s         
 
 Vector   62  Occ=0.000000D+00  E= 1.941877D+00
              MO Center= -1.8D-02,  2.6D-02, -6.0D-01, r^2= 4.6D+00
   Bfn.  Coefficient  Atom+Function         Bfn.  Coefficient  Atom+Function  
  ----- ------------  ---------------      ----- ------------  ---------------
    14      2.086462   1 C  py               35     -2.007901   3 C  s         
    50      1.903949   4 C  s                34      1.693927   3 C  s         
    49     -1.636202   4 C  s                62      1.097533   5 H  s         
    65     -1.064330   6 H  s                68      0.990775   7 H  s         
    74     -0.931141   9 H  s                71      0.925056   8 H  s         
 
 Vector   63  Occ=0.000000D+00  E= 2.071001D+00
              MO Center=  2.1D-01, -7.2D-01, -1.3D+00, r^2= 3.5D+00
   Bfn.  Coefficient  Atom+Function         Bfn.  Coefficient  Atom+Function  
  ----- ------------  ---------------      ----- ------------  ---------------
    77      1.451113  10 H  s                74     -1.302718   9 H  s         
    76     -1.010070  10 H  s                68     -0.975880   7 H  s         
    73      0.878124   9 H  s                78     -0.870646  10 H  s         
    75      0.843959   9 H  s                69      0.733084   7 H  s         
    71      0.732291   8 H  s                67      0.623431   7 H  s         
 
 Vector   64  Occ=0.000000D+00  E= 2.088841D+00
              MO Center= -7.2D-02,  4.4D-01, -1.1D+00, r^2= 4.1D+00
   Bfn.  Coefficient  Atom+Function         Bfn.  Coefficient  Atom+Function  
  ----- ------------  ---------------      ----- ------------  ---------------
    71      1.423679   8 H  s                68     -1.134622   7 H  s         
    77     -0.985838  10 H  s                70     -0.980554   8 H  s         
    67      0.831485   7 H  s                72     -0.732468   8 H  s         
    76      0.678993  10 H  s                50      0.542741   4 C  s         
    78      0.535208  10 H  s                69      0.511309   7 H  s         
 
 Vector   65  Occ=0.000000D+00  E= 2.095188D+00
              MO Center= -1.9D-01, -1.2D+00, -6.2D-01, r^2= 3.8D+00
   Bfn.  Coefficient  Atom+Function         Bfn.  Coefficient  Atom+Function  
  ----- ------------  ---------------      ----- ------------  ---------------
    65      1.475373   6 H  s                74     -1.312072   9 H  s         
    64     -1.091087   6 H  s                68      0.930569   7 H  s         
    73      0.872178   9 H  s                75      0.856931   9 H  s         
    36     -0.748819   3 C  s                69     -0.633809   7 H  s         
    14      0.596854   1 C  py               66     -0.586824   6 H  s         
 
 Vector   66  Occ=0.000000D+00  E= 2.108753D+00
              MO Center=  4.5D-02,  1.2D+00, -5.0D-01, r^2= 3.3D+00
   Bfn.  Coefficient  Atom+Function         Bfn.  Coefficient  Atom+Function  
  ----- ------------  ---------------      ----- ------------  ---------------
     5      1.773205   1 C  s                62      1.444811   5 H  s         
     4     -1.384878   1 C  s                61     -1.096108   5 H  s         
     6     -0.972124   1 C  s                71     -0.851556   8 H  s         
    51     -0.776257   4 C  s                68     -0.728296   7 H  s         
    72      0.677242   8 H  s                35      0.616242   3 C  s         
 
 Vector   67  Occ=0.000000D+00  E= 2.179124D+00
              MO Center=  1.9D-02,  1.7D-01, -1.2D-01, r^2= 2.6D+00
   Bfn.  Coefficient  Atom+Function         Bfn.  Coefficient  Atom+Function  
  ----- ------------  ---------------      ----- ------------  ---------------
     5      4.550975   1 C  s                 6     -4.236637   1 C  s         
     4     -3.340957   1 C  s                35      0.965983   3 C  s         
    34     -0.949579   3 C  s                50      0.795578   4 C  s         
    15      0.776972   1 C  pz               49     -0.771192   4 C  s         
    51      0.685674   4 C  s                62     -0.677331   5 H  s         
 
 Vector   68  Occ=0.000000D+00  E= 2.245680D+00
              MO Center= -3.6D-03,  1.7D-01,  1.3D+00, r^2= 1.3D+00
   Bfn.  Coefficient  Atom+Function         Bfn.  Coefficient  Atom+Function  
  ----- ------------  ---------------      ----- ------------  ---------------
    25      1.741917   2 O  px               22     -1.184061   2 O  px        
    28     -1.068974   2 O  px               13      0.839291   1 C  px        
    10     -0.424357   1 C  px               58     -0.365892   4 C  px        
    43     -0.334504   3 C  px               44     -0.214334   3 C  py        
    55      0.184129   4 C  px               59     -0.182854   4 C  py        
 
 Vector   69  Occ=0.000000D+00  E= 2.350829D+00
              MO Center= -8.1D-03,  1.4D-01,  9.0D-01, r^2= 2.4D+00
   Bfn.  Coefficient  Atom+Function         Bfn.  Coefficient  Atom+Function  
  ----- ------------  ---------------      ----- ------------  ---------------
    36      1.990226   3 C  s                51     -1.877522   4 C  s         
    50      1.309920   4 C  s                35     -1.290107   3 C  s         
    27      1.179659   2 O  pz               26      1.057634   2 O  py        
    34      0.961157   3 C  s                49     -0.954902   4 C  s         
    24     -0.773627   2 O  pz               29     -0.734551   2 O  py        
 
 Vector   70  Occ=0.000000D+00  E= 2.529069D+00
              MO Center=  1.5D-02, -6.4D-01, -4.9D-01, r^2= 3.4D+00
   Bfn.  Coefficient  Atom+Function         Bfn.  Coefficient  Atom+Function  
  ----- ------------  ---------------      ----- ------------  ---------------
    51      6.187402   4 C  s                 6     -4.172377   1 C  s         
    50     -4.077740   4 C  s                49      2.834726   4 C  s         
    35     -2.143845   3 C  s                36      2.026764   3 C  s         
     5      1.889422   1 C  s                34      1.583240   3 C  s         
    14      1.492333   1 C  py               74     -1.009842   9 H  s         
 
 Vector   71  Occ=0.000000D+00  E= 2.561683D+00
              MO Center= -1.3D-02,  7.4D-01, -4.4D-02, r^2= 3.2D+00
   Bfn.  Coefficient  Atom+Function         Bfn.  Coefficient  Atom+Function  
  ----- ------------  ---------------      ----- ------------  ---------------
    36      6.868943   3 C  s                35     -4.044878   3 C  s         
    14     -2.873545   1 C  py               51     -2.705418   4 C  s         
    34      2.661813   3 C  s                 6     -2.269405   1 C  s         
     5      1.629051   1 C  s                50      1.331034   4 C  s         
    44     -1.232546   3 C  py                4     -1.178417   1 C  s         
 
 Vector   72  Occ=0.000000D+00  E= 2.785175D+00
              MO Center=  1.2D-03, -1.5D-02,  8.1D-01, r^2= 2.9D+00
   Bfn.  Coefficient  Atom+Function         Bfn.  Coefficient  Atom+Function  
  ----- ------------  ---------------      ----- ------------  ---------------
    51      5.306933   4 C  s                14      4.589547   1 C  py        
    36     -3.985990   3 C  s                50     -2.675812   4 C  s         
    35      2.222500   3 C  s                29     -1.853036   2 O  py        
    49      1.607743   4 C  s                26      1.514216   2 O  py        
    34     -1.369896   3 C  s                59      1.282083   4 C  py        
 
 Vector   73  Occ=0.000000D+00  E= 4.341608D+00
              MO Center=  1.0D-03,  1.7D-01,  1.3D+00, r^2= 8.8D-01
   Bfn.  Coefficient  Atom+Function         Bfn.  Coefficient  Atom+Function  
  ----- ------------  ---------------      ----- ------------  ---------------
    20      5.011279   2 O  s                19     -3.895452   2 O  s         
    21     -3.864936   2 O  s                 6      1.476031   1 C  s         
    15      1.405174   1 C  pz               18      0.815537   2 O  s         
    80      0.604161  11 H  s                30      0.594591   2 O  pz        
    60     -0.479158   4 C  pz               45     -0.387691   3 C  pz        
 
 Vector   74  Occ=0.000000D+00  E= 1.127491D+01
              MO Center= -9.0D-04,  3.8D-02, -1.1D-01, r^2= 8.0D-01
   Bfn.  Coefficient  Atom+Function         Bfn.  Coefficient  Atom+Function  
  ----- ------------  ---------------      ----- ------------  ---------------
     4     -3.005249   1 C  s                 3      2.928885   1 C  s         
     5      2.557103   1 C  s                 6     -1.585251   1 C  s         
     2     -1.532511   1 C  s                33      1.116421   3 C  s         
    34     -1.100589   3 C  s                48      0.971218   4 C  s         
    49     -0.963104   4 C  s                35      0.810378   3 C  s         
 
 Vector   75  Occ=0.000000D+00  E= 1.147035D+01
              MO Center=  8.5D-03, -9.1D-01, -4.9D-01, r^2= 1.0D+00
   Bfn.  Coefficient  Atom+Function         Bfn.  Coefficient  Atom+Function  
  ----- ------------  ---------------      ----- ------------  ---------------
    49     -3.006079   4 C  s                48      2.867435   4 C  s         
    50      2.733296   4 C  s                51     -2.475794   4 C  s         
     6      1.571377   1 C  s                47     -1.498569   4 C  s         
     5     -1.430419   1 C  s                 4      1.419567   1 C  s         
     3     -1.311227   1 C  s                34     -0.972059   3 C  s         
 
 Vector   76  Occ=0.000000D+00  E= 1.149980D+01
              MO Center= -5.1D-03,  8.1D-01, -6.8D-01, r^2= 1.3D+00
   Bfn.  Coefficient  Atom+Function         Bfn.  Coefficient  Atom+Function  
  ----- ------------  ---------------      ----- ------------  ---------------
    34     -3.116150   3 C  s                33      2.954005   3 C  s         
    35      2.885261   3 C  s                36     -2.758516   3 C  s         
    32     -1.541210   3 C  s                49      1.374032   4 C  s         
    51      1.371341   4 C  s                48     -1.295369   4 C  s         
    50     -1.297721   4 C  s                14      1.067991   1 C  py        
 
 Vector   77  Occ=0.000000D+00  E= 2.162030D+01
              MO Center=  1.6D-03,  1.7D-01,  1.3D+00, r^2= 2.0D-01
   Bfn.  Coefficient  Atom+Function         Bfn.  Coefficient  Atom+Function  
  ----- ------------  ---------------      ----- ------------  ---------------
    18      3.322490   2 O  s                19     -3.219185   2 O  s         
    20      2.575484   2 O  s                17     -1.741887   2 O  s         
    21     -1.614756   2 O  s                15      0.592688   1 C  pz        
     6      0.540543   1 C  s                30      0.250799   2 O  pz        
    60     -0.193473   4 C  pz               80      0.191189  11 H  s         
 
 Vector   78  Occ=0.000000D+00  E= 6.220952D+01
              MO Center= -5.2D-04,  3.6D-02, -9.1D-02, r^2= 4.7D-01
   Bfn.  Coefficient  Atom+Function         Bfn.  Coefficient  Atom+Function  
  ----- ------------  ---------------      ----- ------------  ---------------
     2      2.650540   1 C  s                 3     -2.019695   1 C  s         
     1     -1.567614   1 C  s                 4      1.345984   1 C  s         
     5     -1.087936   1 C  s                32      0.968448   3 C  s         
    47      0.838418   4 C  s                33     -0.733204   3 C  s         
     6      0.683340   1 C  s                48     -0.636003   4 C  s         
 
 Vector   79  Occ=0.000000D+00  E= 6.242043D+01
              MO Center=  8.9D-03, -9.7D-01, -5.0D-01, r^2= 7.0D-01
   Bfn.  Coefficient  Atom+Function         Bfn.  Coefficient  Atom+Function  
  ----- ------------  ---------------      ----- ------------  ---------------
    47      2.625051   4 C  s                48     -2.005900   4 C  s         
    46     -1.550141   4 C  s                49      1.365814   4 C  s         
    50     -1.175721   4 C  s                 2     -1.117440   1 C  s         
    51      1.058744   4 C  s                 3      0.857093   1 C  s         
    32      0.762509   3 C  s                 1      0.658001   1 C  s         
 
 Vector   80  Occ=0.000000D+00  E= 6.244961D+01
              MO Center= -5.4D-03,  8.7D-01, -6.7D-01, r^2= 8.8D-01
   Bfn.  Coefficient  Atom+Function         Bfn.  Coefficient  Atom+Function  
  ----- ------------  ---------------      ----- ------------  ---------------
    32      2.681443   3 C  s                33     -2.052101   3 C  s         
    31     -1.582643   3 C  s                34      1.406001   3 C  s         
    35     -1.232068   3 C  s                36      1.167889   3 C  s         
    47     -1.056131   4 C  s                48      0.810642   4 C  s         
     2     -0.651810   1 C  s                46      0.622867   4 C  s         
 
 Vector   81  Occ=0.000000D+00  E= 1.175590D+02
              MO Center=  1.6D-03,  1.7D-01,  1.3D+00, r^2= 4.4D-02
   Bfn.  Coefficient  Atom+Function         Bfn.  Coefficient  Atom+Function  
  ----- ------------  ---------------      ----- ------------  ---------------
    17      2.969706   2 O  s                18     -2.273691   2 O  s         
    16     -1.756190   2 O  s                19      1.435267   2 O  s         
    20     -1.083945   2 O  s                21      0.682369   2 O  s         
    15     -0.253558   1 C  pz                6     -0.234439   1 C  s         
    30     -0.106836   2 O  pz               60      0.083183   4 C  pz        
 

 center of mass
 --------------
 x =   0.00099978 y =   0.03050755 z =   0.10306921

 moments of inertia (a.u.)
 ------------------
         384.435310872521           2.278156791210          -0.039997695512
           2.278156791210         189.538604418888           0.410921390908
          -0.039997695512           0.410921390908         217.093707632568
 
     Multipole analysis of the density
     ---------------------------------
 
     L   x y z        total         alpha         beta         nuclear
     -   - - -        -----         -----         ----         -------
     0   0 0 0      1.000000    -16.000000    -16.000000     33.000000
 
     1   1 0 0     -0.025502     -0.012751     -0.012751     -0.000000
     1   0 1 0     -0.711478     -0.355739     -0.355739      0.000000
     1   0 0 1     -0.164178     -0.082089     -0.082089      0.000000
 
     2   2 0 0    -16.555691    -13.781742    -13.781742     11.007792
     2   1 1 0     -0.378534      0.665374      0.665374     -1.709281
     2   1 0 1     -0.020946     -0.010641     -0.010641      0.000336
     2   0 2 0    -11.680940    -72.479679    -72.479679    133.278418
     2   0 1 1     -2.780940      0.262734      0.262734     -3.306408
     2   0 0 2    -11.778443    -60.026536    -60.026536    108.274630
 

 Task  times  cpu:        2.1s     wall:        2.2s
 
 
                                NWChem Input Module
                                -------------------
 
 
 Summary of allocated global arrays
-----------------------------------
  No active global arrays



                         GA Statistics for process    0
                         ------------------------------

       create   destroy   get      put      acc     scatter   gather  read&inc
calls:  168      168     1.27e+04 1425     1.04e+04    0        0      443     
number of processes/call 8.92e+00 3.88e+01 5.72e+00 0.00e+00 0.00e+00
bytes total:             2.00e+07 2.57e+06 1.10e+07 0.00e+00 0.00e+00 3.54e+03
bytes remote:            1.63e+07 1.49e+06 9.39e+06 0.00e+00 0.00e+00 0.00e+00
Max memory consumed for GA by this process: 272352 bytes
 
 
 
                                     CITATION
                                     --------
                Please cite the following reference when publishing
                           results obtained with NWChem:
 
          E. Apr, E. J. Bylaska, W. A. de Jong, N. Govind, K. Kowalski,
       T. P. Straatsma, M. Valiev, H. J. J. van Dam, Y. Alexeev, J. Anchell,
       V. Anisimov, F. W. Aquino, R. Atta-Fynn, J. Autschbach, N. P. Bauman,
     J. C. Becca, D. E. Bernholdt, K. Bhaskaran-Nair, S. Bogatko, P. Borowski,
        J. Boschen, J. Brabec, A. Bruner, E. Caut, Y. Chen, G. N. Chuev,
      C. J. Cramer, J. Daily, M. J. O. Deegan, T. H. Dunning Jr., M. Dupuis,
   K. G. Dyall, G. I. Fann, S. A. Fischer, A. Fonari, H. Frchtl, L. Gagliardi,
      J. Garza, N. Gawande, S. Ghosh, K. Glaesemann, A. W. Gtz, J. Hammond,
       V. Helms, E. D. Hermes, K. Hirao, S. Hirata, M. Jacquelin, L. Jensen,
   B. G. Johnson, H. Jnsson, R. A. Kendall, M. Klemm, R. Kobayashi, V. Konkov,
      S. Krishnamoorthy, M. Krishnan, Z. Lin, R. D. Lins, R. J. Littlefield,
      A. J. Logsdail, K. Lopata, W. Ma, A. V. Marenich, J. Martin del Campo,
   D. Mejia-Rodriguez, J. E. Moore, J. M. Mullin, T. Nakajima, D. R. Nascimento,
    J. A. Nichols, P. J. Nichols, J. Nieplocha, A. Otero-de-la-Roza, B. Palmer,
    A. Panyala, T. Pirojsirikul, B. Peng, R. Peverati, J. Pittner, L. Pollack,
   R. M. Richard, P. Sadayappan, G. C. Schatz, W. A. Shelton, D. W. Silverstein,
   D. M. A. Smith, T. A. Soares, D. Song, M. Swart, H. L. Taylor, G. S. Thomas,
            V. Tipparaju, D. G. Truhlar, K. Tsemekhman, T. Van Voorhis,
     . Vzquez-Mayagoitia, P. Verma, O. Villa, A. Vishnu, K. D. Vogiatzis,
        D. Wang, J. H. Weare, M. J. Williamson, T. L. Windus, K. Woliski,
        A. T. Wong, Q. Wu, C. Yang, Q. Yu, M. Zacharias, Z. Zhang, Y. Zhao,
                                and R. J. Harrison
                        "NWChem: Past, present, and future
                         J. Chem. Phys. 152, 184102 (2020)
                               doi:10.1063/5.0004997
 
                                      AUTHORS
                                      -------
     E. Apra, E. J. Bylaska, N. Govind, K. Kowalski, M. Valiev, W. A. de Jong,
      T. P. Straatsma, H. J. J. van Dam, D. Wang, T. L. Windus, N. P. Bauman,
       A. Panyala, J. Hammond, J. Autschbach, K. Bhaskaran-Nair, J. Brabec,
    K. Lopata, S. A. Fischer, S. Krishnamoorthy, M. Jacquelin, W. Ma, M. Klemm,
       O. Villa, Y. Chen, V. Anisimov, F. Aquino, S. Hirata, M. T. Hackler,
           Eric Hermes, L. Jensen, J. E. Moore, J. C. Becca, V. Konjkov,
            D. Mejia-Rodriguez, T. Risthaus, M. Malagoli, A. Marenich,
   A. Otero-de-la-Roza, J. Mullin, P. Nichols, R. Peverati, J. Pittner, Y. Zhao,
        P.-D. Fan, A. Fonari, M. J. Williamson, R. J. Harrison, J. R. Rehr,
      M. Dupuis, D. Silverstein, D. M. A. Smith, J. Nieplocha, V. Tipparaju,
      M. Krishnan, B. E. Van Kuiken, A. Vazquez-Mayagoitia, M. Swart, Q. Wu,
   T. Van Voorhis, A. A. Auer, M. Nooijen, L. D. Crosby, E. Brown, G. Cisneros,
     G. I. Fann, H. Fruchtl, J. Garza, K. Hirao, R. A. Kendall, J. A. Nichols,
       K. Tsemekhman, K. Wolinski, J. Anchell, D. E. Bernholdt, P. Borowski,
       T. Clark, D. Clerc, H. Dachsel, M. J. O. Deegan, K. Dyall, D. Elwood,
      E. Glendening, M. Gutowski, A. C. Hess, J. Jaffe, B. G. Johnson, J. Ju,
        R. Kobayashi, R. Kutteh, Z. Lin, R. Littlefield, X. Long, B. Meng,
      T. Nakajima, S. Niu, L. Pollack, M. Rosing, K. Glaesemann, G. Sandrone,
      M. Stave, H. Taylor, G. Thomas, J. H. van Lenthe, A. T. Wong, Z. Zhang.

 Total times  cpu:        2.1s     wall:        2.3s
