 
             Northwest Computational Chemistry Package (NWChem) 7.0.0
             --------------------------------------------------------
 
 
                    Environmental Molecular Sciences Laboratory
                       Pacific Northwest National Laboratory
                                Richland, WA 99352
 
                              Copyright (c) 1994-2020
                       Pacific Northwest National Laboratory
                            Battelle Memorial Institute
 
             NWChem is an open-source computational chemistry package
                        distributed under the terms of the
                      Educational Community License (ECL) 2.0
             A copy of the license is included with this distribution
                              in the LICENSE.TXT file
 
                                  ACKNOWLEDGMENT
                                  --------------

            This software and its documentation were developed at the
            EMSL at Pacific Northwest National Laboratory, a multiprogram
            national laboratory, operated for the U.S. Department of Energy
            by Battelle under Contract Number DE-AC05-76RL01830. Support
            for this work was provided by the Department of Energy Office
            of Biological and Environmental Research, Office of Basic
            Energy Sciences, and the Office of Advanced Scientific Computing.


                                NWChem Input Module
                                -------------------
 
 
 Summary of "ao basis" -> "" (spherical)
 ------------------------------------------------------------------------------
       Tag                 Description            Shells   Functions and Types
 ---------------- ------------------------------  ------  ---------------------
 *                        ahlrichs_vtz                on all atoms 



 Scaling coordinates for geometry "geometry" by  1.889725989
 (inverse scale =  0.529177249)

 
 
                             Geometry "geometry" -> ""
                             -------------------------
 
 Output coordinates in angstroms (scale by  1.889725989 to convert to a.u.)
 
  No.       Tag          Charge          X              Y              Z
 ---- ---------------- ---------- -------------- -------------- --------------
    1 C                    6.0000    -0.83748131    -0.06761647     0.51770236
    2 C                    6.0000     0.52428173     0.39369765     0.67436314
    3 C                    6.0000     1.47250186     0.25922839    -0.51123250
    4 H                    1.0000     0.90742206    -0.10985024     1.59600964
    5 H                    1.0000     0.44370115     1.44400573     1.04877565
    6 O                    8.0000    -1.21776434    -0.58043851    -0.61720147
    7 H                    1.0000    -1.56957937     0.00185415     1.33522108
    8 H                    1.0000     1.11217629     0.82221898    -1.38239511
    9 H                    1.0000     1.59578389    -0.78936342    -0.81287189
   10 H                    1.0000     2.45820710     0.65200532    -0.23671846
   11 H                    1.0000    -2.16141004    -0.88921996    -0.69540727
 
      Atomic Mass 
      ----------- 
 
      C                 12.000000
      H                  1.007825
      O                 15.994910
 

 Effective nuclear repulsion energy (a.u.)     125.9806016281

            Nuclear Dipole moment (a.u.) 
            ----------------------------
        X                 Y               Z
 ---------------- ---------------- ----------------
     0.0000000000    -0.0000000000     0.0000000000
 
 
            XYZ format geometry
            -------------------
    11
 geometry
 C                    -0.83748131    -0.06761647     0.51770236
 C                     0.52428173     0.39369765     0.67436314
 C                     1.47250186     0.25922839    -0.51123250
 H                     0.90742206    -0.10985024     1.59600964
 H                     0.44370115     1.44400573     1.04877565
 O                    -1.21776434    -0.58043851    -0.61720147
 H                    -1.56957937     0.00185415     1.33522108
 H                     1.11217629     0.82221898    -1.38239511
 H                     1.59578389    -0.78936342    -0.81287189
 H                     2.45820710     0.65200532    -0.23671846
 H                    -2.16141004    -0.88921996    -0.69540727
 
 ==============================================================================
                                internuclear distances
 ------------------------------------------------------------------------------
       center one      |      center two      | atomic units |  angstroms
 ------------------------------------------------------------------------------
    2 C                |   1 C                |     2.73309  |     1.44629
    3 C                |   2 C                |     2.88011  |     1.52409
    4 H                |   2 C                |     2.11260  |     1.11794
    5 H                |   2 C                |     2.11263  |     1.11796
    6 O                |   1 C                |     2.46072  |     1.30216
    7 H                |   1 C                |     2.07795  |     1.09960
    8 H                |   3 C                |     2.07502  |     1.09805
    9 H                |   3 C                |     2.07503  |     1.09806
   10 H                |   3 C                |     2.07117  |     1.09601
   11 H                |   6 O                |     1.88208  |     0.99596
 ------------------------------------------------------------------------------
                         number of included internuclear distances:         10
 ==============================================================================



 ==============================================================================
                                 internuclear angles
 ------------------------------------------------------------------------------
        center 1       |       center 2       |       center 3       |  degrees
 ------------------------------------------------------------------------------
    2 C                |   1 C                |   6 O                |   119.67
    2 C                |   1 C                |   7 H                |   121.75
    6 O                |   1 C                |   7 H                |   118.58
    1 C                |   2 C                |   3 C                |   118.25
    1 C                |   2 C                |   4 H                |   105.56
    1 C                |   2 C                |   5 H                |   105.55
    3 C                |   2 C                |   4 H                |   112.85
    3 C                |   2 C                |   5 H                |   112.85
    4 H                |   2 C                |   5 H                |    99.89
    2 C                |   3 C                |   8 H                |   111.58
    2 C                |   3 C                |   9 H                |   111.58
    2 C                |   3 C                |  10 H                |   109.46
    8 H                |   3 C                |   9 H                |   107.97
    8 H                |   3 C                |  10 H                |   108.06
    9 H                |   3 C                |  10 H                |   108.06
    1 C                |   6 O                |  11 H                |   117.86
 ------------------------------------------------------------------------------
                            number of included internuclear angles:         16
 ==============================================================================



                              Aldehyde and Ketone set
                              -----------------------
 
                                 NWChem DFT Module
                                 -----------------
 
 
                              Aldehyde and Ketone set
 
 
                      Basis "ao basis" -> "ao basis" (spherical)
                      -----
  C (Carbon)
  ----------
            Exponent  Coefficients 
       -------------- ---------------------------------------------------------
  1 S  8.50603840E+03  0.000534
  1 S  1.27573290E+03  0.004125
  1 S  2.90311870E+02  0.021171
  1 S  8.20562000E+01  0.082418
  1 S  2.64796410E+01  0.240129
 
  2 S  9.24145850E+00  1.000000
 
  3 S  3.36435300E+00  1.000000
 
  4 S  8.71741640E-01  1.000000
 
  5 S  3.63523520E-01  1.000000
 
  6 S  1.28731350E-01  1.000000
 
  7 P  3.47094960E+01  0.005330
  7 P  7.95908830E+00  0.035866
  7 P  2.37869720E+00  0.142003
  7 P  8.15400650E-01  0.342031
 
  8 P  2.89537850E-01  1.000000
 
  9 P  1.00847540E-01  1.000000
 
  H (Hydrogen)
  ------------
            Exponent  Coefficients 
       -------------- ---------------------------------------------------------
  1 S  3.40613410E+01  0.006025
  1 S  5.12357460E+00  0.045021
  1 S  1.16466260E+00  0.201897
 
  2 S  3.27230410E-01  1.000000
 
  3 S  1.03072410E-01  1.000000
 
  O (Oxygen)
  ----------
            Exponent  Coefficients 
       -------------- ---------------------------------------------------------
  1 S  1.59026475E+04  0.000515
  1 S  2.38495378E+03  0.003982
  1 S  5.42719572E+02  0.020477
  1 S  1.53404079E+02  0.080262
  1 S  4.95457161E+01  0.237668
 
  2 S  1.73396499E+01  1.000000
 
  3 S  6.33033553E+00  1.000000
 
  4 S  1.69958822E+00  1.000000
 
  5 S  6.89544913E-01  1.000000
 
  6 S  2.39360282E-01  1.000000
 
  7 P  6.32705240E+01  0.006071
  7 P  1.46233123E+01  0.041948
  7 P  4.44895180E+00  0.161569
  7 P  1.52815132E+00  0.356828
 
  8 P  5.29973159E-01  1.000000
 
  9 P  1.75094460E-01  1.000000
 


 Summary of "ao basis" -> "ao basis" (spherical)
 ------------------------------------------------------------------------------
       Tag                 Description            Shells   Functions and Types
 ---------------- ------------------------------  ------  ---------------------
 C                        ahlrichs vtz               9       15   6s3p
 H                        ahlrichs vtz               3        3   3s
 O                        ahlrichs vtz               9       15   6s3p




 Summary of "ao basis" -> "ao basis" (spherical)
 ------------------------------------------------------------------------------
       Tag                 Description            Shells   Functions and Types
 ---------------- ------------------------------  ------  ---------------------
 C                        ahlrichs vtz               9       15   6s3p
 H                        ahlrichs vtz               3        3   3s
 O                        ahlrichs vtz               9       15   6s3p


  Caching 1-el integrals 
 
            General Information
            -------------------
          SCF calculation type: DFT
          Wavefunction type:  closed shell.
          No. of atoms     :    11
          No. of electrons :    32
           Alpha electrons :    16
            Beta electrons :    16
          Charge           :     1
          Spin multiplicity:     1
          Use of symmetry is: off; symmetry adaption is: off
          Maximum number of iterations: ***
          This is a Direct SCF calculation.
          AO basis - number of functions:    81
                     number of shells:    57
          Convergence on energy requested:  1.00D-08
          Convergence on density requested:  1.00D-07
          Convergence on gradient requested:  1.00D-06
 
              XC Information
              --------------
                        PBE96 Method XC Functional
          PerdewBurkeErnzerhof Exchange Functional  1.000          
            Perdew 1991 LDA Correlation Functional  1.000 local    
           PerdewBurkeErnz. Correlation Functional  1.000 non-local
 
             Grid Information
             ----------------
          Grid used for XC integration:  fine      
          Radial quadrature: Mura-Knowles        
          Angular quadrature: Lebedev. 
          Tag              B.-S. Rad. Rad. Pts. Rad. Cut. Ang. Pts.
          ---              ---------- --------- --------- ---------
          C                   0.70       70          11.0       590
          H                   0.35       60          13.0       590
          O                   0.60       70          11.0       590
          Grid pruning is: on 
          Number of quadrature shells:   700
          Spatial weights used:  Erf1
 
          Convergence Information
          -----------------------
          Convergence aids based upon iterative change in 
          total energy or number of iterations. 
          Levelshifting, if invoked, occurs when the 
          HOMO/LUMO gap drops below (HL_TOL):  1.00D-02
          DIIS, if invoked, will attempt to extrapolate 
          using up to (NFOCK): 10 stored Fock matrices.

                    Damping( 0%)  Levelshifting(0.5)       DIIS
                  --------------- ------------------- ---------------
          dE  on:    start            ASAP                start   
          dE off:    2 iters        *** iters           *** iters 

 
      Screening Tolerance Information
      -------------------------------
          Density screening/tol_rho:  1.00D-12
          AO Gaussian exp screening on grid/accAOfunc:  18
          CD Gaussian exp screening on grid/accCDfunc:  20
          XC Gaussian exp screening on grid/accXCfunc:  20
          Schwarz screening/accCoul:  1.00D-12

      Dispersion Parameters
      ---------------------

           DFT-D3BJ Model   
          s6 scale factor  :        1.000000000000
          s8 scale factor  :        0.787500000000
          a1 parameter     :        0.428900000000
          a2 parameter     :        4.440700000000
              vdW contrib  :       -0.006451497638


 Forcing the number of linearly dependent vectors to be  0
 
      Superposition of Atomic Density Guess
      -------------------------------------
 
 Sum of atomic energies:        -191.29601129
   Time after variat. SCF:      0.1
   Time prior to 1st pass:      0.1

 Grid_pts file          = ./04_CH3CH2CHOH.gridpts.00
 Record size in doubles =  12289        No. of grid_pts per rec  =   3070
 Max. records in memory =     11        Max. recs in file   =  67550051

 Grid integrated density:      33.000003450943
 Requested integration accuracy:   0.10E-06

           Memory utilization after 1st SCF pass: 
           Heap Space remaining (MW):        0.00                 343
          Stack Space remaining (MW):      288.36           288357636

   convergence    iter        energy       DeltaE   RMS-Dens  Diis-err    time
 ---------------- ----- ----------------- --------- --------- ---------  ------
 d= 0,ls=0.0,diis     1   -194.0401025152 -3.20D+02  2.99D-02  4.70D+01     0.3
 d= 0,ls=0.0,diis     2   -193.1000871594  9.40D-01  2.05D-02  1.01D+00     0.5
 d= 0,ls=0.0,diis     3   -192.8493123893  2.51D-01  1.39D-02  2.75D+00     0.7
 d= 0,ls=0.0,diis     4   -193.2136370567 -3.64D-01  2.48D-03  7.98D-02     0.9
 d= 0,ls=0.0,diis     5   -193.2230192134 -9.38D-03  1.12D-03  1.64D-02     1.1
 d= 0,ls=0.0,diis     6   -193.2241203294 -1.10D-03  6.07D-04  8.13D-03     1.3
 d= 0,ls=0.0,diis     7   -193.2249574922 -8.37D-04  1.10D-04  8.11D-05     1.5
 d= 0,ls=0.0,diis     8   -193.2249671485 -9.66D-06  2.17D-05  8.74D-06     1.7
 d= 0,ls=0.0,diis     9   -193.2249682098 -1.06D-06  6.72D-06  3.64D-07     1.9
 d= 0,ls=0.0,diis    10   -193.2249682572 -4.74D-08  1.31D-06  1.36D-08     2.1
 d= 0,ls=0.0,diis    11   -193.2249682591 -1.95D-09  1.88D-07  1.56D-10     2.2
 d= 0,ls=0.0,diis    12   -193.2249682592 -3.48D-11  2.32D-08  2.13D-12     2.4


         Total DFT energy =     -193.224968259182
      One electron energy =     -502.697889237509
           Coulomb energy =      210.348781965707
          Exchange energy =      -25.810178673301
       Correlation energy =       -1.039832444554
 Nuclear repulsion energy =      125.980601628113

    Dispersion correction =       -0.006451497638

 Numeric. integr. density =       32.000001471830

     Total iterative time =      2.3s


 
                       DFT Final Molecular Orbital Analysis
                       ------------------------------------
 
 Vector    1  Occ=2.000000D+00  E=-1.909967D+01
              MO Center= -1.2D+00, -5.8D-01, -6.2D-01, r^2= 1.5D-02
   Bfn.  Coefficient  Atom+Function         Bfn.  Coefficient  Atom+Function  
  ----- ------------  ---------------      ----- ------------  ---------------
    53      0.424637   6 O  s                54      0.366214   6 O  s         
    52      0.299522   6 O  s                55      0.055285   6 O  s         
 
 Vector    2  Occ=2.000000D+00  E=-1.027020D+01
              MO Center= -8.4D-01, -6.8D-02,  5.2D-01, r^2= 2.8D-02
   Bfn.  Coefficient  Atom+Function         Bfn.  Coefficient  Atom+Function  
  ----- ------------  ---------------      ----- ------------  ---------------
     2      0.424245   1 C  s                 3      0.359670   1 C  s         
     1      0.308798   1 C  s                 4      0.057049   1 C  s         
 
 Vector    3  Occ=2.000000D+00  E=-1.013450D+01
              MO Center=  5.2D-01,  3.9D-01,  6.7D-01, r^2= 2.8D-02
   Bfn.  Coefficient  Atom+Function         Bfn.  Coefficient  Atom+Function  
  ----- ------------  ---------------      ----- ------------  ---------------
    17      0.424274   2 C  s                18      0.359345   2 C  s         
    16      0.308821   2 C  s                19      0.057944   2 C  s         
 
 Vector    4  Occ=2.000000D+00  E=-1.006263D+01
              MO Center=  1.5D+00,  2.6D-01, -5.1D-01, r^2= 2.8D-02
   Bfn.  Coefficient  Atom+Function         Bfn.  Coefficient  Atom+Function  
  ----- ------------  ---------------      ----- ------------  ---------------
    32      0.424246   3 C  s                33      0.359444   3 C  s         
    31      0.308836   3 C  s                34      0.057542   3 C  s         
 
 Vector    5  Occ=2.000000D+00  E=-1.293870D+00
              MO Center= -1.3D+00, -5.0D-01, -3.6D-01, r^2= 5.4D-01
   Bfn.  Coefficient  Atom+Function         Bfn.  Coefficient  Atom+Function  
  ----- ------------  ---------------      ----- ------------  ---------------
    56      0.521826   6 O  s                57      0.262544   6 O  s         
     5      0.187819   1 C  s                54     -0.142677   6 O  s         
    53     -0.118915   6 O  s                55      0.112949   6 O  s         
    60      0.098597   6 O  pz               63      0.097838   6 O  pz        
     9     -0.097160   1 C  pz               79      0.074215  11 H  s         
 
 Vector    6  Occ=2.000000D+00  E=-9.684535D-01
              MO Center= -1.6D-01,  9.2D-02,  3.9D-01, r^2= 1.8D+00
   Bfn.  Coefficient  Atom+Function         Bfn.  Coefficient  Atom+Function  
  ----- ------------  ---------------      ----- ------------  ---------------
    20      0.371446   2 C  s                 5      0.325970   1 C  s         
    56     -0.137002   6 O  s                35      0.135364   3 C  s         
    58      0.107804   6 O  px               57     -0.105934   6 O  s         
    18     -0.102633   2 C  s                61      0.094649   6 O  px        
     3     -0.090886   1 C  s                21      0.089558   2 C  s         
 
 Vector    7  Occ=2.000000D+00  E=-8.543169D-01
              MO Center= -2.2D-01, -1.3D-01, -1.7D-01, r^2= 3.0D+00
   Bfn.  Coefficient  Atom+Function         Bfn.  Coefficient  Atom+Function  
  ----- ------------  ---------------      ----- ------------  ---------------
     5      0.287785   1 C  s                35     -0.280441   3 C  s         
    20     -0.234547   2 C  s                58      0.170558   6 O  px        
    60      0.159368   6 O  pz               61      0.148065   6 O  px        
    63      0.123185   6 O  pz               80     -0.113494  11 H  s         
    79     -0.107790  11 H  s                59      0.106924   6 O  py        
 
 Vector    8  Occ=2.000000D+00  E=-8.026544D-01
              MO Center= -1.5D-01, -2.5D-02,  6.0D-02, r^2= 3.0D+00
   Bfn.  Coefficient  Atom+Function         Bfn.  Coefficient  Atom+Function  
  ----- ------------  ---------------      ----- ------------  ---------------
    35      0.286861   3 C  s                 9     -0.197870   1 C  pz        
    58      0.187919   6 O  px               61      0.159378   6 O  px        
    12     -0.147079   1 C  pz               20     -0.127897   2 C  s         
    36      0.115968   3 C  s                 5     -0.106115   1 C  s         
    24     -0.102181   2 C  pz               80     -0.101479  11 H  s         
 
 Vector    9  Occ=2.000000D+00  E=-7.417341D-01
              MO Center= -3.1D-01, -3.7D-03,  2.5D-01, r^2= 3.1D+00
   Bfn.  Coefficient  Atom+Function         Bfn.  Coefficient  Atom+Function  
  ----- ------------  ---------------      ----- ------------  ---------------
    35      0.271104   3 C  s                 7     -0.208380   1 C  px        
    10     -0.199555   1 C  px                5      0.178358   1 C  s         
    20     -0.165916   2 C  s                56     -0.136588   6 O  s         
     9      0.132808   1 C  pz               67      0.132513   7 H  s         
    68      0.130264   7 H  s                58     -0.124113   6 O  px        
 
 Vector   10  Occ=2.000000D+00  E=-6.575085D-01
              MO Center= -5.3D-01, -1.2D-01,  9.8D-02, r^2= 2.1D+00
   Bfn.  Coefficient  Atom+Function         Bfn.  Coefficient  Atom+Function  
  ----- ------------  ---------------      ----- ------------  ---------------
    59      0.274323   6 O  py               62      0.238699   6 O  py        
     8      0.210854   1 C  py               11      0.191898   1 C  py        
    23      0.162456   2 C  py               26      0.143521   2 C  py        
    65      0.119434   6 O  py               60     -0.096792   6 O  pz        
    63     -0.084223   6 O  pz               58     -0.081771   6 O  px        
 
 Vector   11  Occ=2.000000D+00  E=-6.532046D-01
              MO Center=  1.6D-01,  1.7D-01,  3.5D-01, r^2= 2.4D+00
   Bfn.  Coefficient  Atom+Function         Bfn.  Coefficient  Atom+Function  
  ----- ------------  ---------------      ----- ------------  ---------------
    21      0.209265   2 C  s                60      0.203861   6 O  pz        
    22      0.201405   2 C  px                7     -0.185382   1 C  px        
    63      0.176379   6 O  pz               10     -0.174835   1 C  px        
    20      0.157583   2 C  s                 5     -0.149983   1 C  s         
     6     -0.130223   1 C  s                25      0.124143   2 C  px        
 
 Vector   12  Occ=2.000000D+00  E=-5.895254D-01
              MO Center=  7.5D-02,  5.7D-02,  9.9D-02, r^2= 2.8D+00
   Bfn.  Coefficient  Atom+Function         Bfn.  Coefficient  Atom+Function  
  ----- ------------  ---------------      ----- ------------  ---------------
    59      0.269976   6 O  py               62      0.235676   6 O  py        
    23     -0.210999   2 C  py               26     -0.198907   2 C  py        
    65      0.145263   6 O  py               38     -0.130476   3 C  py        
    47      0.120845   4 H  s                50     -0.120873   5 H  s         
    41     -0.108268   3 C  py               29     -0.097929   2 C  py        
 
 Vector   13  Occ=2.000000D+00  E=-5.752963D-01
              MO Center= -4.2D-01, -2.0D-01, -2.1D-01, r^2= 2.7D+00
   Bfn.  Coefficient  Atom+Function         Bfn.  Coefficient  Atom+Function  
  ----- ------------  ---------------      ----- ------------  ---------------
    58      0.246487   6 O  px               60     -0.224505   6 O  pz        
    61      0.214423   6 O  px               21     -0.198714   2 C  s         
    56      0.182650   6 O  s                57      0.180886   6 O  s         
    63     -0.179033   6 O  pz               24      0.168312   2 C  pz        
    27      0.160026   2 C  pz               80     -0.134565  11 H  s         
 
 Vector   14  Occ=2.000000D+00  E=-5.375081D-01
              MO Center=  5.6D-01,  1.6D-01, -2.3D-02, r^2= 2.8D+00
   Bfn.  Coefficient  Atom+Function         Bfn.  Coefficient  Atom+Function  
  ----- ------------  ---------------      ----- ------------  ---------------
    39     -0.202710   3 C  pz               24      0.201208   2 C  pz        
    27      0.192264   2 C  pz               22     -0.180411   2 C  px        
    37      0.178005   3 C  px               25     -0.165904   2 C  px        
    68     -0.158001   7 H  s                42     -0.152088   3 C  pz        
    60      0.145140   6 O  pz               40      0.140694   3 C  px        
 
 Vector   15  Occ=2.000000D+00  E=-5.096247D-01
              MO Center=  1.5D+00,  3.3D-01, -3.6D-01, r^2= 1.8D+00
   Bfn.  Coefficient  Atom+Function         Bfn.  Coefficient  Atom+Function  
  ----- ------------  ---------------      ----- ------------  ---------------
    37      0.216903   3 C  px               77      0.209926  10 H  s         
    40      0.193737   3 C  px               39      0.190097   3 C  pz        
    42      0.164415   3 C  pz               76      0.163485  10 H  s         
     6      0.140253   1 C  s                38      0.131322   3 C  py        
     5      0.122047   1 C  s                41      0.115404   3 C  py        
 
 Vector   16  Occ=2.000000D+00  E=-5.022215D-01
              MO Center=  1.1D+00,  1.9D-01, -4.3D-01, r^2= 2.2D+00
   Bfn.  Coefficient  Atom+Function         Bfn.  Coefficient  Atom+Function  
  ----- ------------  ---------------      ----- ------------  ---------------
    38      0.268273   3 C  py               41      0.239268   3 C  py        
    71      0.179744   8 H  s                74     -0.180242   9 H  s         
    70      0.137474   8 H  s                73     -0.137896   9 H  s         
    23     -0.122524   2 C  py               47      0.119437   4 H  s         
    50     -0.119570   5 H  s                26     -0.111942   2 C  py        
 
 Vector   17  Occ=0.000000D+00  E=-3.581537D-01
              MO Center= -7.1D-01, -7.5D-02,  3.9D-01, r^2= 1.8D+00
   Bfn.  Coefficient  Atom+Function         Bfn.  Coefficient  Atom+Function  
  ----- ------------  ---------------      ----- ------------  ---------------
    11      0.418681   1 C  py                8      0.383709   1 C  py        
    14      0.294278   1 C  py               59     -0.246167   6 O  py        
    65     -0.238559   6 O  py               62     -0.211310   6 O  py        
    47      0.151964   4 H  s                50     -0.151990   5 H  s         
    12     -0.147361   1 C  pz                9     -0.135048   1 C  pz        
 
 Vector   18  Occ=0.000000D+00  E=-2.226312D-01
              MO Center= -2.0D+00, -7.3D-01, -3.4D-01, r^2= 3.2D+00
   Bfn.  Coefficient  Atom+Function         Bfn.  Coefficient  Atom+Function  
  ----- ------------  ---------------      ----- ------------  ---------------
    81      0.930901  11 H  s                57     -0.726336   6 O  s         
     6     -0.468844   1 C  s                36     -0.437540   3 C  s         
    80      0.418146  11 H  s                64      0.317164   6 O  px        
    69      0.270933   7 H  s                30     -0.236235   2 C  pz        
    48      0.233288   4 H  s                51      0.233396   5 H  s         
 
 Vector   19  Occ=0.000000D+00  E=-1.505400D-01
              MO Center= -9.8D-01,  1.9D-01,  1.4D+00, r^2= 4.6D+00
   Bfn.  Coefficient  Atom+Function         Bfn.  Coefficient  Atom+Function  
  ----- ------------  ---------------      ----- ------------  ---------------
     6      1.535353   1 C  s                69     -1.534014   7 H  s         
    21      0.968770   2 C  s                48     -0.592219   4 H  s         
    51     -0.592942   5 H  s                28      0.551964   2 C  px        
    57     -0.407166   6 O  s                13     -0.390239   1 C  px        
    81      0.387699  11 H  s                15      0.364460   1 C  pz        
 
 Vector   20  Occ=0.000000D+00  E=-1.381633D-01
              MO Center=  2.1D-01,  3.0D-01,  6.6D-01, r^2= 6.2D+00
   Bfn.  Coefficient  Atom+Function         Bfn.  Coefficient  Atom+Function  
  ----- ------------  ---------------      ----- ------------  ---------------
    21     -1.512433   2 C  s                 6      1.474090   1 C  s         
    36     -1.203199   3 C  s                48      0.987179   4 H  s         
    51      0.987532   5 H  s                69     -0.791037   7 H  s         
    30     -0.784349   2 C  pz               72      0.474080   8 H  s         
    75      0.474659   9 H  s                57     -0.368996   6 O  s         
 
 Vector   21  Occ=0.000000D+00  E=-1.102619D-01
              MO Center=  4.5D-01,  5.4D-01,  1.2D+00, r^2= 4.8D+00
   Bfn.  Coefficient  Atom+Function         Bfn.  Coefficient  Atom+Function  
  ----- ------------  ---------------      ----- ------------  ---------------
    48      1.726374   4 H  s                51     -1.726001   5 H  s         
    29      1.430721   2 C  py               14     -0.657794   1 C  py        
    30     -0.504854   2 C  pz               28     -0.427947   2 C  px        
    26      0.354409   2 C  py               75      0.274792   9 H  s         
    72     -0.272092   8 H  s                23      0.255115   2 C  py        
 
 Vector   22  Occ=0.000000D+00  E=-9.434102D-02
              MO Center=  3.0D-01,  1.4D-01,  1.3D-01, r^2= 7.6D+00
   Bfn.  Coefficient  Atom+Function         Bfn.  Coefficient  Atom+Function  
  ----- ------------  ---------------      ----- ------------  ---------------
    21      2.585596   2 C  s                36     -2.344645   3 C  s         
     6     -0.840606   1 C  s                13     -0.704350   1 C  px        
    30     -0.656348   2 C  pz               72      0.636480   8 H  s         
    75      0.636461   9 H  s                81     -0.624078  11 H  s         
    69      0.608999   7 H  s                43      0.495799   3 C  px        
 
 Vector   23  Occ=0.000000D+00  E=-5.940615D-02
              MO Center=  2.7D-01,  2.9D-03, -2.2D-01, r^2= 5.9D+00
   Bfn.  Coefficient  Atom+Function         Bfn.  Coefficient  Atom+Function  
  ----- ------------  ---------------      ----- ------------  ---------------
    21     -1.267692   2 C  s                13      1.236352   1 C  px        
    30      1.083447   2 C  pz               72      0.977518   8 H  s         
    75      0.969056   9 H  s                48     -0.792523   4 H  s         
    51     -0.795558   5 H  s                36     -0.714108   3 C  s         
    81      0.682795  11 H  s                45      0.663781   3 C  pz        
 
 Vector   24  Occ=0.000000D+00  E=-5.718044D-02
              MO Center=  1.9D+00,  5.9D-01,  6.2D-02, r^2= 4.8D+00
   Bfn.  Coefficient  Atom+Function         Bfn.  Coefficient  Atom+Function  
  ----- ------------  ---------------      ----- ------------  ---------------
    78      2.242973  10 H  s                28      1.409227   2 C  px        
    43     -1.205627   3 C  px               45     -1.201797   3 C  pz        
    72     -1.033886   8 H  s                75     -1.026867   9 H  s         
     6      0.982869   1 C  s                44     -0.783565   3 C  py        
    29      0.631788   2 C  py               30      0.596941   2 C  pz        
 
 Vector   25  Occ=0.000000D+00  E=-4.399604D-02
              MO Center=  1.2D+00,  1.8D-02, -9.1D-01, r^2= 4.7D+00
   Bfn.  Coefficient  Atom+Function         Bfn.  Coefficient  Atom+Function  
  ----- ------------  ---------------      ----- ------------  ---------------
    72      2.136286   8 H  s                75     -2.143797   9 H  s         
    44     -1.775571   3 C  py               29      1.263027   2 C  py        
    48      0.960648   4 H  s                51     -0.958675   5 H  s         
    45      0.622944   3 C  pz               43      0.532827   3 C  px        
    30     -0.443791   2 C  pz               28     -0.370769   2 C  px        
 
 Vector   26  Occ=0.000000D+00  E=-2.023445D-02
              MO Center=  5.5D-01,  2.7D-01,  3.0D-01, r^2= 5.4D+00
   Bfn.  Coefficient  Atom+Function         Bfn.  Coefficient  Atom+Function  
  ----- ------------  ---------------      ----- ------------  ---------------
    28      2.395786   2 C  px                6      2.137770   1 C  s         
    13      1.907420   1 C  px               21     -1.533454   2 C  s         
    78     -1.260977  10 H  s                69      1.032709   7 H  s         
    45     -0.840184   3 C  pz               43      0.739338   3 C  px        
    29      0.659825   2 C  py               14      0.593190   1 C  py        
 
 Vector   27  Occ=0.000000D+00  E= 1.086952D-03
              MO Center=  4.6D-01,  6.8D-02, -1.9D-01, r^2= 7.1D+00
   Bfn.  Coefficient  Atom+Function         Bfn.  Coefficient  Atom+Function  
  ----- ------------  ---------------      ----- ------------  ---------------
    30      2.218662   2 C  pz               15     -1.977358   1 C  pz        
    69      1.661449   7 H  s                21     -1.613686   2 C  s         
    36      1.411374   3 C  s                 6      1.330788   1 C  s         
    43     -1.321102   3 C  px               45      0.982206   3 C  pz        
    48     -0.962607   4 H  s                51     -0.957918   5 H  s         
 
 Vector   28  Occ=0.000000D+00  E= 1.419312D-02
              MO Center= -7.5D-01, -6.9D-02,  4.4D-01, r^2= 4.9D+00
   Bfn.  Coefficient  Atom+Function         Bfn.  Coefficient  Atom+Function  
  ----- ------------  ---------------      ----- ------------  ---------------
    14      1.374559   1 C  py               11     -0.609492   1 C  py        
    72     -0.533717   8 H  s                75      0.533121   9 H  s         
    15     -0.485033   1 C  pz               13     -0.415754   1 C  px        
    48      0.353412   4 H  s                51     -0.353484   5 H  s         
    44      0.269626   3 C  py                8     -0.238301   1 C  py        
 
 Vector   29  Occ=0.000000D+00  E= 2.401389D-02
              MO Center=  5.3D-01,  1.8D-01,  4.8D-02, r^2= 6.1D+00
   Bfn.  Coefficient  Atom+Function         Bfn.  Coefficient  Atom+Function  
  ----- ------------  ---------------      ----- ------------  ---------------
    30      2.183394   2 C  pz               13      1.375803   1 C  px        
    15     -1.248054   1 C  pz               69      1.128937   7 H  s         
    36      0.998001   3 C  s                48     -0.792834   4 H  s         
    51     -0.795693   5 H  s                45     -0.681750   3 C  pz        
     6      0.653257   1 C  s                57     -0.634670   6 O  s         
 
 Vector   30  Occ=0.000000D+00  E= 5.296391D-02
              MO Center=  1.5D+00,  4.4D-01, -5.2D-02, r^2= 4.1D+00
   Bfn.  Coefficient  Atom+Function         Bfn.  Coefficient  Atom+Function  
  ----- ------------  ---------------      ----- ------------  ---------------
    44      1.566866   3 C  py               45     -0.539928   3 C  pz        
    71     -0.521558   8 H  s                74      0.523382   9 H  s         
    72     -0.516508   8 H  s                75      0.509597   9 H  s         
    43     -0.474611   3 C  px               47      0.379350   4 H  s         
    50     -0.366537   5 H  s                29      0.343244   2 C  py        
 
 Vector   31  Occ=0.000000D+00  E= 5.432981D-02
              MO Center= -3.6D-01,  3.8D-02,  4.3D-01, r^2= 6.7D+00
   Bfn.  Coefficient  Atom+Function         Bfn.  Coefficient  Atom+Function  
  ----- ------------  ---------------      ----- ------------  ---------------
    13      2.759933   1 C  px               21     -2.372494   2 C  s         
    69      1.329150   7 H  s                 6      1.204824   1 C  s         
    14      0.863968   1 C  py               30     -0.731862   2 C  pz        
    64     -0.646146   6 O  px               45      0.587022   3 C  pz        
    48     -0.467142   4 H  s                51     -0.465790   5 H  s         
 
 Vector   32  Occ=0.000000D+00  E= 7.113122D-02
              MO Center=  2.4D-01,  2.0D-01,  3.6D-01, r^2= 5.5D+00
   Bfn.  Coefficient  Atom+Function         Bfn.  Coefficient  Atom+Function  
  ----- ------------  ---------------      ----- ------------  ---------------
    43      0.906527   3 C  px               69      0.865552   7 H  s         
    68     -0.804383   7 H  s                25      0.689977   2 C  px        
     6      0.645776   1 C  s                30     -0.460004   2 C  pz        
    28     -0.440497   2 C  px               77     -0.386213  10 H  s         
    78      0.361687  10 H  s                72     -0.327492   8 H  s         
 
 Vector   33  Occ=0.000000D+00  E= 1.105631D-01
              MO Center= -1.5D+00, -6.7D-01, -6.6D-01, r^2= 5.3D+00
   Bfn.  Coefficient  Atom+Function         Bfn.  Coefficient  Atom+Function  
  ----- ------------  ---------------      ----- ------------  ---------------
    13      2.246441   1 C  px               69      1.888741   7 H  s         
    21     -1.567853   2 C  s                81      1.480806  11 H  s         
    80     -1.303465  11 H  s                28      1.080930   2 C  px        
    43      0.886130   3 C  px               78     -0.754163  10 H  s         
    15     -0.656791   1 C  pz               20      0.634116   2 C  s         
 
 Vector   34  Occ=0.000000D+00  E= 1.169611D-01
              MO Center=  8.3D-01,  3.0D-01,  1.4D-01, r^2= 6.2D+00
   Bfn.  Coefficient  Atom+Function         Bfn.  Coefficient  Atom+Function  
  ----- ------------  ---------------      ----- ------------  ---------------
    29      4.015410   2 C  py               44     -2.572995   3 C  py        
    30     -1.410075   2 C  pz               14     -1.325564   1 C  py        
    48      1.284160   4 H  s                51     -1.286772   5 H  s         
    28     -1.215305   2 C  px               72      0.954206   8 H  s         
    75     -0.947382   9 H  s                45      0.913749   3 C  pz        
 
 Vector   35  Occ=0.000000D+00  E= 1.266041D-01
              MO Center= -1.0D-01, -4.8D-02, -5.8D-02, r^2= 4.1D+00
   Bfn.  Coefficient  Atom+Function         Bfn.  Coefficient  Atom+Function  
  ----- ------------  ---------------      ----- ------------  ---------------
     6      1.957319   1 C  s                28      1.737271   2 C  px        
    30     -1.528178   2 C  pz               45     -1.497899   3 C  pz        
    13      1.420587   1 C  px               21     -1.398876   2 C  s         
    36     -1.122417   3 C  s                75     -0.897072   9 H  s         
    72     -0.891990   8 H  s                69      0.861198   7 H  s         
 
 Vector   36  Occ=0.000000D+00  E= 1.817236D-01
              MO Center=  1.8D-01,  5.6D-02,  2.7D-03, r^2= 6.2D+00
   Bfn.  Coefficient  Atom+Function         Bfn.  Coefficient  Atom+Function  
  ----- ------------  ---------------      ----- ------------  ---------------
    30     -4.065297   2 C  pz               15      3.797090   1 C  pz        
    45     -2.788224   3 C  pz               28      2.664977   2 C  px        
    36     -2.561267   3 C  s                69     -1.889964   7 H  s         
     6      1.702609   1 C  s                13     -1.614956   1 C  px        
    48      1.375665   4 H  s                51      1.374838   5 H  s         
 
 Vector   37  Occ=0.000000D+00  E= 2.119554D-01
              MO Center=  4.3D-01,  4.6D-01,  9.3D-01, r^2= 5.6D+00
   Bfn.  Coefficient  Atom+Function         Bfn.  Coefficient  Atom+Function  
  ----- ------------  ---------------      ----- ------------  ---------------
    48      2.620425   4 H  s                51     -2.617799   5 H  s         
    29      1.991328   2 C  py               72     -1.208906   8 H  s         
    75      1.202832   9 H  s                47     -0.938550   4 H  s         
    50      0.939358   5 H  s                44      0.872384   3 C  py        
    26     -0.829205   2 C  py               30     -0.707270   2 C  pz        
 
 Vector   38  Occ=0.000000D+00  E= 2.153152D-01
              MO Center= -2.4D-01,  4.8D-02,  3.4D-01, r^2= 8.1D+00
   Bfn.  Coefficient  Atom+Function         Bfn.  Coefficient  Atom+Function  
  ----- ------------  ---------------      ----- ------------  ---------------
    69      4.652975   7 H  s                15     -3.517611   1 C  pz        
    13      3.394971   1 C  px               43      2.684962   3 C  px        
    78     -2.257536  10 H  s                 6     -1.247600   1 C  s         
    28      1.160821   2 C  px               45     -0.775786   3 C  pz        
    81     -0.741488  11 H  s                35      0.602143   3 C  s         
 
 Vector   39  Occ=0.000000D+00  E= 2.297639D-01
              MO Center= -6.7D-01,  1.4D-02,  6.1D-01, r^2= 5.2D+00
   Bfn.  Coefficient  Atom+Function         Bfn.  Coefficient  Atom+Function  
  ----- ------------  ---------------      ----- ------------  ---------------
    69      1.971440   7 H  s                 6     -1.296919   1 C  s         
    13      1.298712   1 C  px               68     -1.233197   7 H  s         
    28      1.050956   2 C  px               43     -0.996998   3 C  px        
    20      0.866855   2 C  s                21     -0.723189   2 C  s         
    10     -0.688619   1 C  px               57      0.623610   6 O  s         
 
 Vector   40  Occ=0.000000D+00  E= 2.422319D-01
              MO Center= -6.1D-01, -3.2D-01, -3.9D-01, r^2= 5.3D+00
   Bfn.  Coefficient  Atom+Function         Bfn.  Coefficient  Atom+Function  
  ----- ------------  ---------------      ----- ------------  ---------------
    65     -1.328740   6 O  py               48      1.320100   4 H  s         
    51     -1.312359   5 H  s                72     -1.154625   8 H  s         
    75      1.152804   9 H  s                44      1.029133   3 C  py        
    14      0.776487   1 C  py               29      0.698518   2 C  py        
    62      0.519403   6 O  py               66      0.464917   6 O  pz        
 
 Vector   41  Occ=0.000000D+00  E= 2.457924D-01
              MO Center=  9.4D-02,  1.6D-01,  3.8D-01, r^2= 7.3D+00
   Bfn.  Coefficient  Atom+Function         Bfn.  Coefficient  Atom+Function  
  ----- ------------  ---------------      ----- ------------  ---------------
    21      2.383753   2 C  s                20     -1.597270   2 C  s         
    48     -1.449640   4 H  s                51     -1.452140   5 H  s         
    78     -1.389189  10 H  s                 6     -1.337039   1 C  s         
    81      1.189664  11 H  s                66      0.994825   6 O  pz        
    30      0.767725   2 C  pz               43      0.761071   3 C  px        
 
 Vector   42  Occ=0.000000D+00  E= 2.885879D-01
              MO Center=  1.0D-01,  2.6D-01,  6.4D-01, r^2= 6.3D+00
   Bfn.  Coefficient  Atom+Function         Bfn.  Coefficient  Atom+Function  
  ----- ------------  ---------------      ----- ------------  ---------------
     6      4.623435   1 C  s                28      1.859206   2 C  px        
    51     -1.666730   5 H  s                48     -1.654695   4 H  s         
     5     -1.317832   1 C  s                78      1.035780  10 H  s         
    20     -1.023094   2 C  s                66     -0.901239   6 O  pz        
    29      0.852074   2 C  py               30      0.837169   2 C  pz        
 
 Vector   43  Occ=0.000000D+00  E= 2.943138D-01
              MO Center=  1.1D+00,  2.9D-01, -1.4D-01, r^2= 6.5D+00
   Bfn.  Coefficient  Atom+Function         Bfn.  Coefficient  Atom+Function  
  ----- ------------  ---------------      ----- ------------  ---------------
     6      5.166036   1 C  s                78     -2.545047  10 H  s         
    28      1.850560   2 C  px               21     -1.693073   2 C  s         
    15      1.670660   1 C  pz               69     -1.520006   7 H  s         
    72      1.496673   8 H  s                75      1.482652   9 H  s         
     5     -1.383332   1 C  s                43      1.033911   3 C  px        
 
 Vector   44  Occ=0.000000D+00  E= 2.987906D-01
              MO Center=  1.1D+00,  3.7D-02, -8.0D-01, r^2= 5.1D+00
   Bfn.  Coefficient  Atom+Function         Bfn.  Coefficient  Atom+Function  
  ----- ------------  ---------------      ----- ------------  ---------------
    72      2.444222   8 H  s                75     -2.448593   9 H  s         
    44     -1.655581   3 C  py               71     -1.139699   8 H  s         
    74      1.142672   9 H  s                41      0.925811   3 C  py        
    48      0.774283   4 H  s                51     -0.752140   5 H  s         
    45      0.587010   3 C  pz               65     -0.569957   6 O  py        
 
 Vector   45  Occ=0.000000D+00  E= 3.172023D-01
              MO Center=  2.3D-01, -4.3D-02, -3.1D-01, r^2= 6.1D+00
   Bfn.  Coefficient  Atom+Function         Bfn.  Coefficient  Atom+Function  
  ----- ------------  ---------------      ----- ------------  ---------------
     6      4.381169   1 C  s                13      3.039344   1 C  px        
    28      2.745210   2 C  px                5     -2.035480   1 C  s         
    45     -1.864582   3 C  pz               21     -1.809929   2 C  s         
    72     -1.616292   8 H  s                75     -1.620020   9 H  s         
    36      1.286076   3 C  s                35     -1.032963   3 C  s         
 
 Vector   46  Occ=0.000000D+00  E= 3.407581D-01
              MO Center=  1.0D+00,  1.2D-01, -5.4D-01, r^2= 6.2D+00
   Bfn.  Coefficient  Atom+Function         Bfn.  Coefficient  Atom+Function  
  ----- ------------  ---------------      ----- ------------  ---------------
    36      2.826490   3 C  s                78     -2.038506  10 H  s         
    35     -1.755495   3 C  s                66     -1.079889   6 O  pz        
    43      1.046056   3 C  px               13     -1.008144   1 C  px        
    81     -1.012074  11 H  s                77      0.975231  10 H  s         
    21     -0.933580   2 C  s                 6      0.725628   1 C  s         
 
 Vector   47  Occ=0.000000D+00  E= 4.067023D-01
              MO Center=  7.0D-01,  4.2D-02, -4.7D-01, r^2= 5.1D+00
   Bfn.  Coefficient  Atom+Function         Bfn.  Coefficient  Atom+Function  
  ----- ------------  ---------------      ----- ------------  ---------------
    36      5.948915   3 C  s                13     -3.018311   1 C  px        
     6     -2.470688   1 C  s                21      2.465625   2 C  s         
    28     -2.145263   2 C  px               35     -1.928707   3 C  s         
    64      1.929603   6 O  px               69     -1.737715   7 H  s         
    78     -1.092309  10 H  s                45      1.078919   3 C  pz        
 
 Vector   48  Occ=0.000000D+00  E= 5.259038D-01
              MO Center=  3.3D-01,  2.5D-01,  4.4D-01, r^2= 4.7D+00
   Bfn.  Coefficient  Atom+Function         Bfn.  Coefficient  Atom+Function  
  ----- ------------  ---------------      ----- ------------  ---------------
    21     11.911992   2 C  s                 6     -5.532712   1 C  s         
    36     -3.154374   3 C  s                20     -3.083616   2 C  s         
    13     -2.445404   1 C  px               28     -1.513846   2 C  px        
    47     -1.432324   4 H  s                50     -1.433332   5 H  s         
    45     -1.267730   3 C  pz               64     -1.196751   6 O  px        
 
 Vector   49  Occ=0.000000D+00  E= 5.994318D-01
              MO Center= -6.4D-02, -2.1D-01, -5.4D-01, r^2= 5.7D+00
   Bfn.  Coefficient  Atom+Function         Bfn.  Coefficient  Atom+Function  
  ----- ------------  ---------------      ----- ------------  ---------------
    21      7.116971   2 C  s                36     -7.036388   3 C  s         
    64      2.762549   6 O  px               43      2.641422   3 C  px        
    57     -2.219444   6 O  s                13     -2.021837   1 C  px        
    35      1.904226   3 C  s                80      1.532899  11 H  s         
    30     -1.251930   2 C  pz               78     -1.233077  10 H  s         
 
 Vector   50  Occ=0.000000D+00  E= 8.610382D-01
              MO Center= -6.6D-01, -3.9D-01, -5.5D-01, r^2= 3.6D+00
   Bfn.  Coefficient  Atom+Function         Bfn.  Coefficient  Atom+Function  
  ----- ------------  ---------------      ----- ------------  ---------------
    57      5.636021   6 O  s                36     -4.701121   3 C  s         
    21      4.331320   2 C  s                 6     -3.198853   1 C  s         
    56     -2.784430   6 O  s                15      2.440512   1 C  pz        
    30     -2.252453   2 C  pz               69     -1.106088   7 H  s         
    66      1.036305   6 O  pz               13     -0.920446   1 C  px        
 
 Vector   51  Occ=0.000000D+00  E= 1.084214D+00
              MO Center= -8.3D-01, -6.2D-02,  5.3D-01, r^2= 1.7D+00
   Bfn.  Coefficient  Atom+Function         Bfn.  Coefficient  Atom+Function  
  ----- ------------  ---------------      ----- ------------  ---------------
    11      1.603550   1 C  py                8     -1.134011   1 C  py        
    14     -0.849439   1 C  py               12     -0.555224   1 C  pz        
    10     -0.467828   1 C  px                9      0.395340   1 C  pz        
     7      0.334645   1 C  px               51      0.297830   5 H  s         
    15      0.295110   1 C  pz               48     -0.293347   4 H  s         
 
 Vector   52  Occ=0.000000D+00  E= 1.090270D+00
              MO Center= -4.2D-01,  4.6D-02,  4.8D-01, r^2= 2.5D+00
   Bfn.  Coefficient  Atom+Function         Bfn.  Coefficient  Atom+Function  
  ----- ------------  ---------------      ----- ------------  ---------------
    10      1.810805   1 C  px               12      1.588606   1 C  pz        
    25      1.568057   2 C  px               21     -1.173213   2 C  s         
    11      1.089585   1 C  py                6     -1.032481   1 C  s         
    28     -0.921150   2 C  px               57      0.918741   6 O  s         
     9     -0.688507   1 C  pz               13     -0.656618   1 C  px        
 
 Vector   53  Occ=0.000000D+00  E= 1.173672D+00
              MO Center=  1.8D-01,  2.4D-01,  5.4D-01, r^2= 2.7D+00
   Bfn.  Coefficient  Atom+Function         Bfn.  Coefficient  Atom+Function  
  ----- ------------  ---------------      ----- ------------  ---------------
    69      1.877366   7 H  s                25     -1.775404   2 C  px        
    13      1.731561   1 C  px               21     -1.627371   2 C  s         
    15     -1.613312   1 C  pz               28      1.484668   2 C  px        
    12      1.098070   1 C  pz               27      1.052507   2 C  pz        
    10     -1.005606   1 C  px               36      0.998344   3 C  s         
 
 Vector   54  Occ=0.000000D+00  E= 1.236109D+00
              MO Center=  9.6D-01,  3.4D-01,  1.4D-01, r^2= 2.0D+00
   Bfn.  Coefficient  Atom+Function         Bfn.  Coefficient  Atom+Function  
  ----- ------------  ---------------      ----- ------------  ---------------
    29     -1.570760   2 C  py               26      1.433474   2 C  py        
    41      1.210466   3 C  py               48     -1.147163   4 H  s         
    51      1.147117   5 H  s                23     -0.870457   2 C  py        
    38     -0.807336   3 C  py               44     -0.797759   3 C  py        
    72      0.763669   8 H  s                75     -0.765339   9 H  s         
 
 Vector   55  Occ=0.000000D+00  E= 1.267345D+00
              MO Center=  3.0D-01,  2.5D-02, -1.8D-01, r^2= 3.7D+00
   Bfn.  Coefficient  Atom+Function         Bfn.  Coefficient  Atom+Function  
  ----- ------------  ---------------      ----- ------------  ---------------
    21      2.246137   2 C  s                10     -2.025188   1 C  px        
    36     -1.957269   3 C  s                 6     -1.907967   1 C  s         
    40      1.911580   3 C  px               78      1.004841  10 H  s         
    69      0.973248   7 H  s                12      0.931640   1 C  pz        
    37     -0.917844   3 C  px               20      0.857188   2 C  s         
 
 Vector   56  Occ=0.000000D+00  E= 1.296008D+00
              MO Center=  8.8D-01,  2.8D-01,  4.0D-02, r^2= 3.0D+00
   Bfn.  Coefficient  Atom+Function         Bfn.  Coefficient  Atom+Function  
  ----- ------------  ---------------      ----- ------------  ---------------
    42      1.714316   3 C  pz               21     -1.449810   2 C  s         
    27      1.435595   2 C  pz               45     -1.294994   3 C  pz        
    30     -1.115946   2 C  pz               12     -1.098028   1 C  pz        
    39     -0.879119   3 C  pz               72     -0.808535   8 H  s         
    75     -0.806652   9 H  s                48      0.716462   4 H  s         
 
 Vector   57  Occ=0.000000D+00  E= 1.385089D+00
              MO Center=  1.0D+00,  3.4D-01,  8.5D-02, r^2= 2.6D+00
   Bfn.  Coefficient  Atom+Function         Bfn.  Coefficient  Atom+Function  
  ----- ------------  ---------------      ----- ------------  ---------------
    41     -1.863548   3 C  py               26      1.809016   2 C  py        
    29     -1.761187   2 C  py               44      1.703090   3 C  py        
    75      1.220983   9 H  s                72     -1.214002   8 H  s         
    48     -1.098441   4 H  s                51      1.098600   5 H  s         
    38      0.872430   3 C  py               23     -0.804768   2 C  py        
 
 Vector   58  Occ=0.000000D+00  E= 1.399547D+00
              MO Center=  8.8D-01,  3.1D-01,  1.3D-01, r^2= 2.8D+00
   Bfn.  Coefficient  Atom+Function         Bfn.  Coefficient  Atom+Function  
  ----- ------------  ---------------      ----- ------------  ---------------
    21     -1.506876   2 C  s                42      1.479580   3 C  pz        
     6      1.387438   1 C  s                27     -1.374511   2 C  pz        
    30      1.236326   2 C  pz               43     -1.114581   3 C  px        
    78      1.100901  10 H  s                36      1.022343   3 C  s         
    47      0.898976   4 H  s                50      0.895198   5 H  s         
 
 Vector   59  Occ=0.000000D+00  E= 1.523964D+00
              MO Center=  3.1D-01,  2.3D-01,  3.8D-01, r^2= 3.3D+00
   Bfn.  Coefficient  Atom+Function         Bfn.  Coefficient  Atom+Function  
  ----- ------------  ---------------      ----- ------------  ---------------
    69      1.458861   7 H  s                12      1.444753   1 C  pz        
    27     -1.339649   2 C  pz               43      1.333161   3 C  px        
    15     -1.312993   1 C  pz               78     -1.188208  10 H  s         
    40     -1.115819   3 C  px               68     -1.111316   7 H  s         
    30      1.080645   2 C  pz               10     -0.922099   1 C  px        
 
 Vector   60  Occ=0.000000D+00  E= 1.790134D+00
              MO Center= -2.1D+00, -8.8D-01, -7.1D-01, r^2= 1.2D+00
   Bfn.  Coefficient  Atom+Function         Bfn.  Coefficient  Atom+Function  
  ----- ------------  ---------------      ----- ------------  ---------------
    80      2.339367  11 H  s                79     -1.269991  11 H  s         
    81     -1.166812  11 H  s                61      0.817914   6 O  px        
    57     -0.612999   6 O  s                58     -0.571767   6 O  px        
    15     -0.562213   1 C  pz                5      0.499553   1 C  s         
    69      0.478836   7 H  s                 4     -0.330978   1 C  s         
 
 Vector   61  Occ=0.000000D+00  E= 1.935850D+00
              MO Center=  1.3D-01,  2.9D-01,  7.2D-01, r^2= 3.8D+00
   Bfn.  Coefficient  Atom+Function         Bfn.  Coefficient  Atom+Function  
  ----- ------------  ---------------      ----- ------------  ---------------
     5      2.600812   1 C  s                20     -2.162878   2 C  s         
     4     -1.759773   1 C  s                19      1.654553   2 C  s         
    35      1.366566   3 C  s                47      1.160601   4 H  s         
    50      1.161127   5 H  s                34     -1.024737   3 C  s         
    21     -0.986860   2 C  s                68     -0.970715   7 H  s         
 
 Vector   62  Occ=0.000000D+00  E= 1.954280D+00
              MO Center=  2.8D-02,  1.3D-01,  3.4D-01, r^2= 4.7D+00
   Bfn.  Coefficient  Atom+Function         Bfn.  Coefficient  Atom+Function  
  ----- ------------  ---------------      ----- ------------  ---------------
    35     -1.808400   3 C  s                 5      1.746750   1 C  s         
    34      1.438447   3 C  s                 4     -1.346792   1 C  s         
    68     -1.328355   7 H  s                20      1.023011   2 C  s         
     6     -0.909934   1 C  s                77      0.898889  10 H  s         
    19     -0.883493   2 C  s                67      0.858320   7 H  s         
 
 Vector   63  Occ=0.000000D+00  E= 2.005435D+00
              MO Center=  8.3D-01,  3.9D-01,  3.9D-01, r^2= 3.9D+00
   Bfn.  Coefficient  Atom+Function         Bfn.  Coefficient  Atom+Function  
  ----- ------------  ---------------      ----- ------------  ---------------
    35      1.730435   3 C  s                34     -1.494079   3 C  s         
    20      1.313489   2 C  s                19     -1.171104   2 C  s         
    77     -0.991974  10 H  s                47     -0.902437   4 H  s         
    50     -0.903585   5 H  s                68     -0.903185   7 H  s         
    71     -0.792182   8 H  s                74     -0.792211   9 H  s         
 
 Vector   64  Occ=0.000000D+00  E= 2.107677D+00
              MO Center=  6.6D-01,  5.6D-01,  1.0D+00, r^2= 2.9D+00
   Bfn.  Coefficient  Atom+Function         Bfn.  Coefficient  Atom+Function  
  ----- ------------  ---------------      ----- ------------  ---------------
    47      1.541682   4 H  s                50     -1.541678   5 H  s         
    46     -1.063531   4 H  s                49      1.063211   5 H  s         
    48     -0.698455   4 H  s                51      0.697516   5 H  s         
    75     -0.565472   9 H  s                72      0.562482   8 H  s         
    44     -0.558055   3 C  py               74      0.541506   9 H  s         
 
 Vector   65  Occ=0.000000D+00  E= 2.127734D+00
              MO Center=  1.3D+00,  4.1D-02, -9.6D-01, r^2= 2.5D+00
   Bfn.  Coefficient  Atom+Function         Bfn.  Coefficient  Atom+Function  
  ----- ------------  ---------------      ----- ------------  ---------------
    71      1.509396   8 H  s                74     -1.504907   9 H  s         
    70     -1.077617   8 H  s                73      1.074478   9 H  s         
    72     -0.775962   8 H  s                75      0.773674   9 H  s         
    29      0.460794   2 C  py               47      0.370166   4 H  s         
    50     -0.369135   5 H  s                46     -0.296463   4 H  s         
 
 Vector   66  Occ=0.000000D+00  E= 2.148641D+00
              MO Center=  1.6D+00,  3.4D-01, -4.0D-01, r^2= 3.3D+00
   Bfn.  Coefficient  Atom+Function         Bfn.  Coefficient  Atom+Function  
  ----- ------------  ---------------      ----- ------------  ---------------
     5      1.586491   1 C  s                77      1.588364  10 H  s         
     4     -1.271807   1 C  s                 6     -1.238030   1 C  s         
    76     -1.174782  10 H  s                71     -0.941820   8 H  s         
    74     -0.945464   9 H  s                70      0.607402   8 H  s         
    73      0.610426   9 H  s                78     -0.529822  10 H  s         
 
 Vector   67  Occ=0.000000D+00  E= 2.199689D+00
              MO Center= -4.7D-01,  8.2D-02,  6.3D-01, r^2= 3.2D+00
   Bfn.  Coefficient  Atom+Function         Bfn.  Coefficient  Atom+Function  
  ----- ------------  ---------------      ----- ------------  ---------------
     5      4.195309   1 C  s                 6     -3.834981   1 C  s         
     4     -3.074459   1 C  s                28     -1.568173   2 C  px        
    68      1.166597   7 H  s                15     -1.029221   1 C  pz        
    67     -0.900465   7 H  s                20      0.833205   2 C  s         
    19     -0.763109   2 C  s                77     -0.725311  10 H  s         
 
 Vector   68  Occ=0.000000D+00  E= 2.210281D+00
              MO Center= -1.1D+00, -5.1D-01, -5.2D-01, r^2= 1.5D+00
   Bfn.  Coefficient  Atom+Function         Bfn.  Coefficient  Atom+Function  
  ----- ------------  ---------------      ----- ------------  ---------------
    62      1.544230   6 O  py               59     -1.063616   6 O  py        
    65     -0.901643   6 O  py               63     -0.545492   6 O  pz        
    14      0.511812   1 C  py               61     -0.460297   6 O  px        
    60      0.375559   6 O  pz               58      0.316875   6 O  px        
    66      0.318420   6 O  pz               47     -0.302996   4 H  s         
 
 Vector   69  Occ=0.000000D+00  E= 2.375099D+00
              MO Center= -8.1D-01, -3.9D-01, -4.3D-01, r^2= 2.4D+00
   Bfn.  Coefficient  Atom+Function         Bfn.  Coefficient  Atom+Function  
  ----- ------------  ---------------      ----- ------------  ---------------
    20      1.870544   2 C  s                63      1.557678   6 O  pz        
    21     -1.529288   2 C  s                19     -1.422673   2 C  s         
    60     -1.003475   6 O  pz               66     -1.003605   6 O  pz        
    13     -0.839073   1 C  px                6      0.677825   1 C  s         
    64      0.624517   6 O  px               80      0.568850  11 H  s         
 
 Vector   70  Occ=0.000000D+00  E= 2.502338D+00
              MO Center=  7.5D-01,  3.0D-01,  2.3D-01, r^2= 2.9D+00
   Bfn.  Coefficient  Atom+Function         Bfn.  Coefficient  Atom+Function  
  ----- ------------  ---------------      ----- ------------  ---------------
    21      4.725387   2 C  s                20     -3.541054   2 C  s         
    35     -3.207830   3 C  s                36      3.122092   3 C  s         
     6     -3.046550   1 C  s                19      2.416771   2 C  s         
    34      2.341873   3 C  s                 5      1.679191   1 C  s         
    13     -1.496281   1 C  px               28     -1.430458   2 C  px        
 
 Vector   71  Occ=0.000000D+00  E= 2.610951D+00
              MO Center=  8.3D-01,  1.6D-01, -2.3D-01, r^2= 3.1D+00
   Bfn.  Coefficient  Atom+Function         Bfn.  Coefficient  Atom+Function  
  ----- ------------  ---------------      ----- ------------  ---------------
    21      6.780453   2 C  s                36     -6.105989   3 C  s         
    35      3.748179   3 C  s                20     -3.196685   2 C  s         
    34     -2.580920   3 C  s                 6     -2.127281   1 C  s         
    19      1.989584   2 C  s                13     -1.220026   1 C  px        
    30     -1.171369   2 C  pz               71      1.015599   8 H  s         
 
 Vector   72  Occ=0.000000D+00  E= 2.723503D+00
              MO Center= -1.1D+00, -5.4D-01, -5.6D-01, r^2= 1.9D+00
   Bfn.  Coefficient  Atom+Function         Bfn.  Coefficient  Atom+Function  
  ----- ------------  ---------------      ----- ------------  ---------------
    21      3.415474   2 C  s                36     -2.358688   3 C  s         
    64      2.188258   6 O  px               61     -1.782867   6 O  px        
    20     -1.649228   2 C  s                13     -1.488447   1 C  px        
    80      1.488008  11 H  s                35      1.119287   3 C  s         
     6     -1.059886   1 C  s                19      1.044751   2 C  s         
 
 Vector   73  Occ=0.000000D+00  E= 4.317257D+00
              MO Center= -1.2D+00, -5.6D-01, -5.8D-01, r^2= 9.3D-01
   Bfn.  Coefficient  Atom+Function         Bfn.  Coefficient  Atom+Function  
  ----- ------------  ---------------      ----- ------------  ---------------
    56      4.975625   6 O  s                55     -3.879785   6 O  s         
    57     -3.816387   6 O  s                36      1.685188   3 C  s         
     6      1.581563   1 C  s                21     -1.563189   2 C  s         
    15     -1.373989   1 C  pz               30      0.993219   2 C  pz        
    54      0.813149   6 O  s                69      0.592101   7 H  s         
 
 Vector   74  Occ=0.000000D+00  E= 1.124744D+01
              MO Center= -6.8D-01, -1.5D-02,  5.3D-01, r^2= 5.9D-01
   Bfn.  Coefficient  Atom+Function         Bfn.  Coefficient  Atom+Function  
  ----- ------------  ---------------      ----- ------------  ---------------
     4     -3.148807   1 C  s                 3      3.090940   1 C  s         
     5      2.672211   1 C  s                 2     -1.621773   1 C  s         
     6     -1.454066   1 C  s                18      1.047073   2 C  s         
    19     -1.050371   2 C  s                20      0.818844   2 C  s         
    21     -0.569274   2 C  s                17     -0.548738   2 C  s         
 
 Vector   75  Occ=0.000000D+00  E= 1.150944D+01
              MO Center=  1.3D+00,  2.7D-01, -3.3D-01, r^2= 8.1D-01
   Bfn.  Coefficient  Atom+Function         Bfn.  Coefficient  Atom+Function  
  ----- ------------  ---------------      ----- ------------  ---------------
    34     -3.116424   3 C  s                33      3.016314   3 C  s         
    35      2.731605   3 C  s                36     -2.028115   3 C  s         
    32     -1.576887   3 C  s                19     -1.219848   2 C  s         
    18      1.173950   2 C  s                20      1.053053   2 C  s         
     6      0.706697   1 C  s                 5     -0.673220   1 C  s         
 
 Vector   76  Occ=0.000000D+00  E= 1.151330D+01
              MO Center=  5.8D-01,  3.4D-01,  4.8D-01, r^2= 8.1D-01
   Bfn.  Coefficient  Atom+Function         Bfn.  Coefficient  Atom+Function  
  ----- ------------  ---------------      ----- ------------  ---------------
    19     -3.093618   2 C  s                18      2.905440   2 C  s         
    20      2.908847   2 C  s                21     -2.826903   2 C  s         
    17     -1.514086   2 C  s                34      1.366876   3 C  s         
    36      1.324996   3 C  s                35     -1.294487   3 C  s         
    33     -1.285229   3 C  s                 6      1.239785   1 C  s         
 
 Vector   77  Occ=0.000000D+00  E= 2.158763D+01
              MO Center= -1.2D+00, -5.8D-01, -6.1D-01, r^2= 2.0D-01
   Bfn.  Coefficient  Atom+Function         Bfn.  Coefficient  Atom+Function  
  ----- ------------  ---------------      ----- ------------  ---------------
    54      3.319733   6 O  s                55     -3.208377   6 O  s         
    56      2.552037   6 O  s                53     -1.741358   6 O  s         
    57     -1.579679   6 O  s                 6      0.592770   1 C  s         
    36      0.583546   3 C  s                15     -0.548840   1 C  pz        
    21     -0.515004   2 C  s                30      0.372211   2 C  pz        
 
 Vector   78  Occ=0.000000D+00  E= 6.218393D+01
              MO Center= -6.9D-01, -1.9D-02,  5.3D-01, r^2= 2.9D-01
   Bfn.  Coefficient  Atom+Function         Bfn.  Coefficient  Atom+Function  
  ----- ------------  ---------------      ----- ------------  ---------------
     2      2.784872   1 C  s                 3     -2.116625   1 C  s         
     1     -1.648502   1 C  s                 4      1.399744   1 C  s         
     5     -1.126412   1 C  s                17      0.929966   2 C  s         
    18     -0.705510   2 C  s                 6      0.621264   1 C  s         
    16     -0.551831   2 C  s                19      0.458217   2 C  s         
 
 Vector   79  Occ=0.000000D+00  E= 6.245275D+01
              MO Center=  1.1D+00,  2.8D-01, -1.4D-01, r^2= 7.6D-01
   Bfn.  Coefficient  Atom+Function         Bfn.  Coefficient  Atom+Function  
  ----- ------------  ---------------      ----- ------------  ---------------
    32      2.440611   3 C  s                33     -1.863653   3 C  s         
    17      1.518678   2 C  s                31     -1.442020   3 C  s         
    34      1.248913   3 C  s                18     -1.166214   2 C  s         
    35     -1.030703   3 C  s                16     -0.895353   2 C  s         
    19      0.794501   2 C  s                36      0.737595   3 C  s         
 
 Vector   80  Occ=0.000000D+00  E= 6.246461D+01
              MO Center=  7.5D-01,  3.3D-01,  3.0D-01, r^2= 7.1D-01
   Bfn.  Coefficient  Atom+Function         Bfn.  Coefficient  Atom+Function  
  ----- ------------  ---------------      ----- ------------  ---------------
    17      2.357897   2 C  s                18     -1.807072   2 C  s         
    32     -1.645593   3 C  s                16     -1.390529   2 C  s         
    19      1.252968   2 C  s                33      1.254506   3 C  s         
    20     -1.124046   2 C  s                21      1.110840   2 C  s         
    31      0.972509   3 C  s                34     -0.858227   3 C  s         
 
 Vector   81  Occ=0.000000D+00  E= 1.175247D+02
              MO Center= -1.2D+00, -5.8D-01, -6.2D-01, r^2= 4.4D-02
   Bfn.  Coefficient  Atom+Function         Bfn.  Coefficient  Atom+Function  
  ----- ------------  ---------------      ----- ------------  ---------------
    53      2.968845   6 O  s                54     -2.271669   6 O  s         
    52     -1.756084   6 O  s                55      1.430025   6 O  s         
    56     -1.073329   6 O  s                57      0.666521   6 O  s         
     6     -0.255101   1 C  s                36     -0.243417   3 C  s         
    15      0.234622   1 C  pz               21      0.214610   2 C  s         
 

 center of mass
 --------------
 x =  -0.08827195 y =  -0.03583749 z =  -0.02697156

 moments of inertia (a.u.)
 ------------------
         140.114432726809         -81.196119057516           0.439669908408
         -81.196119057516         378.341270127009         -29.320641247867
           0.439669908408         -29.320641247867         329.196809705405
 
     Multipole analysis of the density
     ---------------------------------
 
     L   x y z        total         alpha         beta         nuclear
     -   - - -        -----         -----         ----         -------
     0   0 0 0      1.000000    -16.000000    -16.000000     33.000000
 
     1   1 0 0     -1.419193     -0.709597     -0.709597      0.000000
     1   0 1 0     -0.126890     -0.063445     -0.063445     -0.000000
     1   0 0 1      0.841496      0.420748      0.420748      0.000000
 
     2   2 0 0     -6.755679    -90.355486    -90.355486    173.955294
     2   1 1 0      3.158577    -22.062672    -22.062672     47.283922
     2   1 0 1      0.394925      2.125073      2.125073     -3.855220
     2   0 2 0    -15.623410    -23.288824    -23.288824     30.954238
     2   0 1 1      0.901466     -8.056263     -8.056263     17.013993
     2   0 0 2    -14.656046    -38.563654    -38.563654     62.471263
 

 Task  times  cpu:        2.3s     wall:        2.4s
 
 
                                NWChem Input Module
                                -------------------
 
 
 Summary of allocated global arrays
-----------------------------------
  No active global arrays



                         GA Statistics for process    0
                         ------------------------------

       create   destroy   get      put      acc     scatter   gather  read&inc
calls:  168      168     1.14e+04 1427     8603        0        0      402     
number of processes/call 9.77e+00 3.88e+01 6.33e+00 0.00e+00 0.00e+00
bytes total:             1.95e+07 2.57e+06 1.03e+07 0.00e+00 0.00e+00 3.22e+03
bytes remote:            1.57e+07 1.49e+06 8.76e+06 0.00e+00 0.00e+00 0.00e+00
Max memory consumed for GA by this process: 272352 bytes
 
 
 
                                     CITATION
                                     --------
                Please cite the following reference when publishing
                           results obtained with NWChem:
 
          E. Apr, E. J. Bylaska, W. A. de Jong, N. Govind, K. Kowalski,
       T. P. Straatsma, M. Valiev, H. J. J. van Dam, Y. Alexeev, J. Anchell,
       V. Anisimov, F. W. Aquino, R. Atta-Fynn, J. Autschbach, N. P. Bauman,
     J. C. Becca, D. E. Bernholdt, K. Bhaskaran-Nair, S. Bogatko, P. Borowski,
        J. Boschen, J. Brabec, A. Bruner, E. Caut, Y. Chen, G. N. Chuev,
      C. J. Cramer, J. Daily, M. J. O. Deegan, T. H. Dunning Jr., M. Dupuis,
   K. G. Dyall, G. I. Fann, S. A. Fischer, A. Fonari, H. Frchtl, L. Gagliardi,
      J. Garza, N. Gawande, S. Ghosh, K. Glaesemann, A. W. Gtz, J. Hammond,
       V. Helms, E. D. Hermes, K. Hirao, S. Hirata, M. Jacquelin, L. Jensen,
   B. G. Johnson, H. Jnsson, R. A. Kendall, M. Klemm, R. Kobayashi, V. Konkov,
      S. Krishnamoorthy, M. Krishnan, Z. Lin, R. D. Lins, R. J. Littlefield,
      A. J. Logsdail, K. Lopata, W. Ma, A. V. Marenich, J. Martin del Campo,
   D. Mejia-Rodriguez, J. E. Moore, J. M. Mullin, T. Nakajima, D. R. Nascimento,
    J. A. Nichols, P. J. Nichols, J. Nieplocha, A. Otero-de-la-Roza, B. Palmer,
    A. Panyala, T. Pirojsirikul, B. Peng, R. Peverati, J. Pittner, L. Pollack,
   R. M. Richard, P. Sadayappan, G. C. Schatz, W. A. Shelton, D. W. Silverstein,
   D. M. A. Smith, T. A. Soares, D. Song, M. Swart, H. L. Taylor, G. S. Thomas,
            V. Tipparaju, D. G. Truhlar, K. Tsemekhman, T. Van Voorhis,
     . Vzquez-Mayagoitia, P. Verma, O. Villa, A. Vishnu, K. D. Vogiatzis,
        D. Wang, J. H. Weare, M. J. Williamson, T. L. Windus, K. Woliski,
        A. T. Wong, Q. Wu, C. Yang, Q. Yu, M. Zacharias, Z. Zhang, Y. Zhao,
                                and R. J. Harrison
                        "NWChem: Past, present, and future
                         J. Chem. Phys. 152, 184102 (2020)
                               doi:10.1063/5.0004997
 
                                      AUTHORS
                                      -------
     E. Apra, E. J. Bylaska, N. Govind, K. Kowalski, M. Valiev, W. A. de Jong,
      T. P. Straatsma, H. J. J. van Dam, D. Wang, T. L. Windus, N. P. Bauman,
       A. Panyala, J. Hammond, J. Autschbach, K. Bhaskaran-Nair, J. Brabec,
    K. Lopata, S. A. Fischer, S. Krishnamoorthy, M. Jacquelin, W. Ma, M. Klemm,
       O. Villa, Y. Chen, V. Anisimov, F. Aquino, S. Hirata, M. T. Hackler,
           Eric Hermes, L. Jensen, J. E. Moore, J. C. Becca, V. Konjkov,
            D. Mejia-Rodriguez, T. Risthaus, M. Malagoli, A. Marenich,
   A. Otero-de-la-Roza, J. Mullin, P. Nichols, R. Peverati, J. Pittner, Y. Zhao,
        P.-D. Fan, A. Fonari, M. J. Williamson, R. J. Harrison, J. R. Rehr,
      M. Dupuis, D. Silverstein, D. M. A. Smith, J. Nieplocha, V. Tipparaju,
      M. Krishnan, B. E. Van Kuiken, A. Vazquez-Mayagoitia, M. Swart, Q. Wu,
   T. Van Voorhis, A. A. Auer, M. Nooijen, L. D. Crosby, E. Brown, G. Cisneros,
     G. I. Fann, H. Fruchtl, J. Garza, K. Hirao, R. A. Kendall, J. A. Nichols,
       K. Tsemekhman, K. Wolinski, J. Anchell, D. E. Bernholdt, P. Borowski,
       T. Clark, D. Clerc, H. Dachsel, M. J. O. Deegan, K. Dyall, D. Elwood,
      E. Glendening, M. Gutowski, A. C. Hess, J. Jaffe, B. G. Johnson, J. Ju,
        R. Kobayashi, R. Kutteh, Z. Lin, R. Littlefield, X. Long, B. Meng,
      T. Nakajima, S. Niu, L. Pollack, M. Rosing, K. Glaesemann, G. Sandrone,
      M. Stave, H. Taylor, G. Thomas, J. H. van Lenthe, A. T. Wong, Z. Zhang.

 Total times  cpu:        2.4s     wall:        2.5s
