 
             Northwest Computational Chemistry Package (NWChem) 7.0.0
             --------------------------------------------------------
 
 
                    Environmental Molecular Sciences Laboratory
                       Pacific Northwest National Laboratory
                                Richland, WA 99352
 
                              Copyright (c) 1994-2020
                       Pacific Northwest National Laboratory
                            Battelle Memorial Institute
 
             NWChem is an open-source computational chemistry package
                        distributed under the terms of the
                      Educational Community License (ECL) 2.0
             A copy of the license is included with this distribution
                              in the LICENSE.TXT file
 
                                  ACKNOWLEDGMENT
                                  --------------

            This software and its documentation were developed at the
            EMSL at Pacific Northwest National Laboratory, a multiprogram
            national laboratory, operated for the U.S. Department of Energy
            by Battelle under Contract Number DE-AC05-76RL01830. Support
            for this work was provided by the Department of Energy Office
            of Biological and Environmental Research, Office of Basic
            Energy Sciences, and the Office of Advanced Scientific Computing.


                                NWChem Input Module
                                -------------------
 
 
 Summary of "ao basis" -> "" (spherical)
 ------------------------------------------------------------------------------
       Tag                 Description            Shells   Functions and Types
 ---------------- ------------------------------  ------  ---------------------
 *                        ahlrichs_vtz                on all atoms 



 Scaling coordinates for geometry "geometry" by  1.889725989
 (inverse scale =  0.529177249)

 
 
                             Geometry "geometry" -> ""
                             -------------------------
 
 Output coordinates in angstroms (scale by  1.889725989 to convert to a.u.)
 
  No.       Tag          Charge          X              Y              Z
 ---- ---------------- ---------- -------------- -------------- --------------
    1 C                    6.0000    -0.33576444     0.02707915     0.30267588
    2 C                    6.0000     1.02859642     0.46202853     0.47802541
    3 H                    1.0000     1.45750867    -0.03482087     1.37417700
    4 H                    1.0000     1.03536240     1.53490430     0.76574533
    5 O                    8.0000    -0.69697506    -0.50731733    -0.82483868
    6 H                    1.0000    -1.08722284     0.13370915     1.09887294
    7 H                    1.0000     1.65797168     0.29097802    -0.39990419
    8 H                    1.0000    -1.64481135    -0.80087813    -0.92438929
 
      Atomic Mass 
      ----------- 
 
      C                 12.000000
      H                  1.007825
      O                 15.994910
 

 Effective nuclear repulsion energy (a.u.)      76.3258439625

            Nuclear Dipole moment (a.u.) 
            ----------------------------
        X                 Y               Z
 ---------------- ---------------- ----------------
    -0.0000000000     0.0000000000    -0.0000000000
 
 
            XYZ format geometry
            -------------------
     8
 geometry
 C                    -0.33576444     0.02707915     0.30267588
 C                     1.02859642     0.46202853     0.47802541
 H                     1.45750867    -0.03482087     1.37417700
 H                     1.03536240     1.53490430     0.76574533
 O                    -0.69697506    -0.50731733    -0.82483868
 H                    -1.08722284     0.13370915     1.09887294
 H                     1.65797168     0.29097802    -0.39990419
 H                    -1.64481135    -0.80087813    -0.92438929
 
 ==============================================================================
                                internuclear distances
 ------------------------------------------------------------------------------
       center one      |      center two      | atomic units |  angstroms
 ------------------------------------------------------------------------------
    2 C                |   1 C                |     2.72632  |     1.44271
    3 H                |   2 C                |     2.09914  |     1.11082
    4 H                |   2 C                |     2.09912  |     1.11081
    5 O                |   1 C                |     2.45471  |     1.29898
    6 H                |   1 C                |     2.07869  |     1.10000
    7 H                |   2 C                |     2.06675  |     1.09368
    8 H                |   5 O                |     1.88450  |     0.99724
 ------------------------------------------------------------------------------
                         number of included internuclear distances:          7
 ==============================================================================



 ==============================================================================
                                 internuclear angles
 ------------------------------------------------------------------------------
        center 1       |       center 2       |       center 3       |  degrees
 ------------------------------------------------------------------------------
    2 C                |   1 C                |   5 O                |   119.50
    2 C                |   1 C                |   6 H                |   121.93
    5 O                |   1 C                |   6 H                |   118.57
    1 C                |   2 C                |   3 H                |   109.17
    1 C                |   2 C                |   4 H                |   109.17
    1 C                |   2 C                |   7 H                |   113.55
    3 H                |   2 C                |   4 H                |   102.75
    3 H                |   2 C                |   7 H                |   110.82
    4 H                |   2 C                |   7 H                |   110.82
    1 C                |   5 O                |   8 H                |   118.17
 ------------------------------------------------------------------------------
                            number of included internuclear angles:         10
 ==============================================================================



                              Aldehyde and Ketone set
                              -----------------------
 
                                 NWChem DFT Module
                                 -----------------
 
 
                              Aldehyde and Ketone set
 
 
                      Basis "ao basis" -> "ao basis" (spherical)
                      -----
  C (Carbon)
  ----------
            Exponent  Coefficients 
       -------------- ---------------------------------------------------------
  1 S  8.50603840E+03  0.000534
  1 S  1.27573290E+03  0.004125
  1 S  2.90311870E+02  0.021171
  1 S  8.20562000E+01  0.082418
  1 S  2.64796410E+01  0.240129
 
  2 S  9.24145850E+00  1.000000
 
  3 S  3.36435300E+00  1.000000
 
  4 S  8.71741640E-01  1.000000
 
  5 S  3.63523520E-01  1.000000
 
  6 S  1.28731350E-01  1.000000
 
  7 P  3.47094960E+01  0.005330
  7 P  7.95908830E+00  0.035866
  7 P  2.37869720E+00  0.142003
  7 P  8.15400650E-01  0.342031
 
  8 P  2.89537850E-01  1.000000
 
  9 P  1.00847540E-01  1.000000
 
  H (Hydrogen)
  ------------
            Exponent  Coefficients 
       -------------- ---------------------------------------------------------
  1 S  3.40613410E+01  0.006025
  1 S  5.12357460E+00  0.045021
  1 S  1.16466260E+00  0.201897
 
  2 S  3.27230410E-01  1.000000
 
  3 S  1.03072410E-01  1.000000
 
  O (Oxygen)
  ----------
            Exponent  Coefficients 
       -------------- ---------------------------------------------------------
  1 S  1.59026475E+04  0.000515
  1 S  2.38495378E+03  0.003982
  1 S  5.42719572E+02  0.020477
  1 S  1.53404079E+02  0.080262
  1 S  4.95457161E+01  0.237668
 
  2 S  1.73396499E+01  1.000000
 
  3 S  6.33033553E+00  1.000000
 
  4 S  1.69958822E+00  1.000000
 
  5 S  6.89544913E-01  1.000000
 
  6 S  2.39360282E-01  1.000000
 
  7 P  6.32705240E+01  0.006071
  7 P  1.46233123E+01  0.041948
  7 P  4.44895180E+00  0.161569
  7 P  1.52815132E+00  0.356828
 
  8 P  5.29973159E-01  1.000000
 
  9 P  1.75094460E-01  1.000000
 


 Summary of "ao basis" -> "ao basis" (spherical)
 ------------------------------------------------------------------------------
       Tag                 Description            Shells   Functions and Types
 ---------------- ------------------------------  ------  ---------------------
 C                        ahlrichs vtz               9       15   6s3p
 H                        ahlrichs vtz               3        3   3s
 O                        ahlrichs vtz               9       15   6s3p




 Summary of "ao basis" -> "ao basis" (spherical)
 ------------------------------------------------------------------------------
       Tag                 Description            Shells   Functions and Types
 ---------------- ------------------------------  ------  ---------------------
 C                        ahlrichs vtz               9       15   6s3p
 H                        ahlrichs vtz               3        3   3s
 O                        ahlrichs vtz               9       15   6s3p


  Caching 1-el integrals 
 
            General Information
            -------------------
          SCF calculation type: DFT
          Wavefunction type:  closed shell.
          No. of atoms     :     8
          No. of electrons :    24
           Alpha electrons :    12
            Beta electrons :    12
          Charge           :     1
          Spin multiplicity:     1
          Use of symmetry is: off; symmetry adaption is: off
          Maximum number of iterations: ***
          This is a Direct SCF calculation.
          AO basis - number of functions:    60
                     number of shells:    42
          Convergence on energy requested:  1.00D-08
          Convergence on density requested:  1.00D-07
          Convergence on gradient requested:  1.00D-06
 
              XC Information
              --------------
                        PBE96 Method XC Functional
          PerdewBurkeErnzerhof Exchange Functional  1.000          
            Perdew 1991 LDA Correlation Functional  1.000 local    
           PerdewBurkeErnz. Correlation Functional  1.000 non-local
 
             Grid Information
             ----------------
          Grid used for XC integration:  fine      
          Radial quadrature: Mura-Knowles        
          Angular quadrature: Lebedev. 
          Tag              B.-S. Rad. Rad. Pts. Rad. Cut. Ang. Pts.
          ---              ---------- --------- --------- ---------
          C                   0.70       70          11.0       590
          H                   0.35       60          11.0       590
          O                   0.60       70          10.0       590
          Grid pruning is: on 
          Number of quadrature shells:   510
          Spatial weights used:  Erf1
 
          Convergence Information
          -----------------------
          Convergence aids based upon iterative change in 
          total energy or number of iterations. 
          Levelshifting, if invoked, occurs when the 
          HOMO/LUMO gap drops below (HL_TOL):  1.00D-02
          DIIS, if invoked, will attempt to extrapolate 
          using up to (NFOCK): 10 stored Fock matrices.

                    Damping( 0%)  Levelshifting(0.5)       DIIS
                  --------------- ------------------- ---------------
          dE  on:    start            ASAP                start   
          dE off:    2 iters        *** iters           *** iters 

 
      Screening Tolerance Information
      -------------------------------
          Density screening/tol_rho:  1.00D-12
          AO Gaussian exp screening on grid/accAOfunc:  18
          CD Gaussian exp screening on grid/accCDfunc:  20
          XC Gaussian exp screening on grid/accXCfunc:  20
          Schwarz screening/accCoul:  1.00D-12

      Dispersion Parameters
      ---------------------

           DFT-D3BJ Model   
          s6 scale factor  :        1.000000000000
          s8 scale factor  :        0.787500000000
          a1 parameter     :        0.428900000000
          a2 parameter     :        4.440700000000
              vdW contrib  :       -0.003657650852


 Forcing the number of linearly dependent vectors to be  0
 
      Superposition of Atomic Density Guess
      -------------------------------------
 
 Sum of atomic energies:        -152.62524776
   Time after variat. SCF:      0.1
   Time prior to 1st pass:      0.1

 Grid_pts file          = ./05_CH3CHOH.gridpts.00
 Record size in doubles =  12289        No. of grid_pts per rec  =   3070
 Max. records in memory =      9        Max. recs in file   =  67550051

 Grid integrated density:      24.999998776135
 Requested integration accuracy:   0.10E-06

           Memory utilization after 1st SCF pass: 
           Heap Space remaining (MW):        0.00                  62
          Stack Space remaining (MW):      288.36           288357836

   convergence    iter        energy       DeltaE   RMS-Dens  Diis-err    time
 ---------------- ----- ----------------- --------- --------- ---------  ------
 d= 0,ls=0.0,diis     1   -154.6415233077 -2.31D+02  3.40D-02  3.51D+01     0.2
 d= 0,ls=0.0,diis     2   -153.8816134135  7.60D-01  1.79D-02  6.66D-01     0.3
 d= 0,ls=0.0,diis     3   -153.7757132941  1.06D-01  1.08D-02  1.54D+00     0.4
 d= 0,ls=0.0,diis     4   -153.9491719477 -1.73D-01  2.59D-03  7.72D-02     0.5
 d= 0,ls=0.0,diis     5   -153.9559008138 -6.73D-03  1.10D-03  1.53D-02     0.6
 d= 0,ls=0.0,diis     6   -153.9573950318 -1.49D-03  3.45D-04  1.11D-03     0.7
 d= 0,ls=0.0,diis     7   -153.9575428577 -1.48D-04  3.25D-05  7.58D-06     0.8
 d= 0,ls=0.0,diis     8   -153.9575437961 -9.38D-07  4.71D-06  5.24D-08     0.9
 d= 0,ls=0.0,diis     9   -153.9575438060 -9.87D-09  9.31D-07  5.89D-09     0.9
 d= 0,ls=0.0,diis    10   -153.9575438067 -7.73D-10  1.53D-07  1.00D-10     1.0
 d= 0,ls=0.0,diis    11   -153.9575438067 -1.38D-11  1.63D-08  1.21D-12     1.1


         Total DFT energy =     -153.957543806748
      One electron energy =     -352.695987270477
           Coulomb energy =      143.151212714253
          Exchange energy =      -19.956507543221
       Correlation energy =       -0.778448018911
 Nuclear repulsion energy =       76.325843962461

    Dispersion correction =       -0.003657650852

 Numeric. integr. density =       23.999999196959

     Total iterative time =      1.0s


 
                       DFT Final Molecular Orbital Analysis
                       ------------------------------------
 
 Vector    1  Occ=2.000000D+00  E=-1.911265D+01
              MO Center= -7.0D-01, -5.1D-01, -8.2D-01, r^2= 1.5D-02
   Bfn.  Coefficient  Atom+Function         Bfn.  Coefficient  Atom+Function  
  ----- ------------  ---------------      ----- ------------  ---------------
    38      0.424627  5 O  s                 39      0.366245  5 O  s          
    37      0.299522  5 O  s                 40      0.055181  5 O  s          
 
 Vector    2  Occ=2.000000D+00  E=-1.028756D+01
              MO Center= -3.4D-01,  2.7D-02,  3.0D-01, r^2= 2.8D-02
   Bfn.  Coefficient  Atom+Function         Bfn.  Coefficient  Atom+Function  
  ----- ------------  ---------------      ----- ------------  ---------------
     2      0.424232  1 C  s                  3      0.359734  1 C  s          
     1      0.308806  1 C  s                  4      0.056774  1 C  s          
 
 Vector    3  Occ=2.000000D+00  E=-1.013388D+01
              MO Center=  1.0D+00,  4.6D-01,  4.8D-01, r^2= 2.8D-02
   Bfn.  Coefficient  Atom+Function         Bfn.  Coefficient  Atom+Function  
  ----- ------------  ---------------      ----- ------------  ---------------
    17      0.424181  2 C  s                 18      0.359435  2 C  s          
    16      0.308806  2 C  s                 19      0.057782  2 C  s          
 
 Vector    4  Occ=2.000000D+00  E=-1.307432D+00
              MO Center= -7.4D-01, -4.2D-01, -5.6D-01, r^2= 5.4D-01
   Bfn.  Coefficient  Atom+Function         Bfn.  Coefficient  Atom+Function  
  ----- ------------  ---------------      ----- ------------  ---------------
    41      0.523072  5 O  s                 42      0.258201  5 O  s          
     5      0.188341  1 C  s                 39     -0.142522  5 O  s          
    38     -0.118866  5 O  s                 40      0.112448  5 O  s          
     9     -0.098357  1 C  pz                45      0.098035  5 O  pz         
    48      0.096908  5 O  pz                58      0.073177  8 H  s          
 
 Vector    5  Occ=2.000000D+00  E=-9.699288D-01
              MO Center=  1.3D-01,  1.1D-01,  1.9D-01, r^2= 1.7D+00
   Bfn.  Coefficient  Atom+Function         Bfn.  Coefficient  Atom+Function  
  ----- ------------  ---------------      ----- ------------  ---------------
     5      0.364687  1 C  s                 20      0.356423  2 C  s          
    41     -0.148331  5 O  s                 43      0.122076  5 O  px         
    42     -0.116320  5 O  s                 46      0.107045  5 O  px         
    21      0.104424  2 C  s                  3     -0.100679  1 C  s          
    18     -0.098550  2 C  s                  7      0.088845  1 C  px         
 
 Vector    6  Occ=2.000000D+00  E=-8.462664D-01
              MO Center= -1.8D-01, -1.4D-01, -2.3D-01, r^2= 2.4D+00
   Bfn.  Coefficient  Atom+Function         Bfn.  Coefficient  Atom+Function  
  ----- ------------  ---------------      ----- ------------  ---------------
    20      0.330178  2 C  s                 43     -0.207993  5 O  px         
     5     -0.195225  1 C  s                 45     -0.190283  5 O  pz         
    46     -0.179861  5 O  px                48     -0.149003  5 O  pz         
    59      0.135311  8 H  s                  9      0.129461  1 C  pz         
    44     -0.129738  5 O  py                58      0.126218  8 H  s          
 
 Vector    7  Occ=2.000000D+00  E=-7.820439D-01
              MO Center= -5.0D-01,  3.6D-03,  3.5D-01, r^2= 1.6D+00
   Bfn.  Coefficient  Atom+Function         Bfn.  Coefficient  Atom+Function  
  ----- ------------  ---------------      ----- ------------  ---------------
     5      0.260329  1 C  s                  9      0.212620  1 C  pz         
    43     -0.175581  5 O  px                12      0.171373  1 C  pz         
    10     -0.161493  1 C  px                 7     -0.154074  1 C  px         
    52      0.152746  6 H  s                 46     -0.146903  5 O  px         
    53      0.143652  6 H  s                 41     -0.135767  5 O  s          
 
 Vector    8  Occ=2.000000D+00  E=-6.654787D-01
              MO Center=  4.3D-01,  1.6D-01,  1.2D-01, r^2= 2.1D+00
   Bfn.  Coefficient  Atom+Function         Bfn.  Coefficient  Atom+Function  
  ----- ------------  ---------------      ----- ------------  ---------------
    22     -0.243628  2 C  px                 7      0.235157  1 C  px         
    10      0.225857  1 C  px                45     -0.219388  5 O  pz         
    21     -0.215227  2 C  s                 48     -0.184549  5 O  pz         
    20     -0.159116  2 C  s                  6      0.149049  1 C  s          
    25     -0.145366  2 C  px                 5      0.139401  1 C  s          
 
 Vector    9  Occ=2.000000D+00  E=-6.651337D-01
              MO Center= -2.3D-01, -1.3D-01, -1.8D-01, r^2= 1.8D+00
   Bfn.  Coefficient  Atom+Function         Bfn.  Coefficient  Atom+Function  
  ----- ------------  ---------------      ----- ------------  ---------------
    44      0.301604  5 O  py                47      0.262954  5 O  py         
     8      0.220994  1 C  py                11      0.202001  1 C  py         
    23      0.141778  2 C  py                50      0.131068  5 O  py         
    26      0.123701  2 C  py                45     -0.117087  5 O  pz         
    48     -0.102079  5 O  pz                 9     -0.085633  1 C  pz         
 
 Vector   10  Occ=2.000000D+00  E=-5.951126D-01
              MO Center=  8.9D-01,  3.0D-01,  1.6D-01, r^2= 2.0D+00
   Bfn.  Coefficient  Atom+Function         Bfn.  Coefficient  Atom+Function  
  ----- ------------  ---------------      ----- ------------  ---------------
    24      0.297482  2 C  pz                27      0.276318  2 C  pz         
    56     -0.162111  7 H  s                 43      0.155459  5 O  px         
    55     -0.146374  7 H  s                 41      0.139917  5 O  s          
    42      0.136634  5 O  s                 46      0.135721  5 O  px         
    32      0.110732  3 H  s                 35      0.110773  4 H  s          
 
 Vector   11  Occ=2.000000D+00  E=-5.851419D-01
              MO Center=  5.9D-01,  2.7D-01,  2.8D-01, r^2= 2.5D+00
   Bfn.  Coefficient  Atom+Function         Bfn.  Coefficient  Atom+Function  
  ----- ------------  ---------------      ----- ------------  ---------------
    23      0.258428  2 C  py                44     -0.247291  5 O  py         
    26      0.244166  2 C  py                47     -0.215574  5 O  py         
    32     -0.163549  3 H  s                 35      0.163521  4 H  s          
    50     -0.142634  5 O  py                31     -0.126821  3 H  s          
    34      0.126799  4 H  s                 24     -0.100211  2 C  pz         
 
 Vector   12  Occ=2.000000D+00  E=-5.698480D-01
              MO Center= -1.8D-01, -1.4D-01, -2.4D-01, r^2= 2.2D+00
   Bfn.  Coefficient  Atom+Function         Bfn.  Coefficient  Atom+Function  
  ----- ------------  ---------------      ----- ------------  ---------------
    45      0.241519  5 O  pz                43     -0.218312  5 O  px         
    53     -0.213991  6 H  s                 48      0.208608  5 O  pz         
    46     -0.190214  5 O  px                22     -0.173897  2 C  px         
     7      0.169071  1 C  px                25     -0.166709  2 C  px         
     9     -0.134058  1 C  pz                51      0.132415  5 O  pz         
 
 Vector   13  Occ=0.000000D+00  E=-3.728480D-01
              MO Center= -2.4D-01,  1.9D-03,  1.7D-01, r^2= 1.8D+00
   Bfn.  Coefficient  Atom+Function         Bfn.  Coefficient  Atom+Function  
  ----- ------------  ---------------      ----- ------------  ---------------
    11      0.422309  1 C  py                 8      0.386809  1 C  py         
    14      0.290281  1 C  py                44     -0.248353  5 O  py         
    50     -0.239226  5 O  py                47     -0.213485  5 O  py         
    12     -0.163768  1 C  pz                 9     -0.150001  1 C  pz         
    32      0.141757  3 H  s                 35     -0.141731  4 H  s          
 
 Vector   14  Occ=0.000000D+00  E=-2.294618D-01
              MO Center= -1.6D+00, -6.6D-01, -5.8D-01, r^2= 2.9D+00
   Bfn.  Coefficient  Atom+Function         Bfn.  Coefficient  Atom+Function  
  ----- ------------  ---------------      ----- ------------  ---------------
    60      0.924588  8 H  s                 42     -0.731288  5 O  s          
     6     -0.472690  1 C  s                 59      0.426371  8 H  s          
    49      0.304560  5 O  px                54      0.274107  6 H  s          
    41     -0.226422  5 O  s                 33      0.219154  3 H  s          
    36      0.219161  4 H  s                 12     -0.215098  1 C  pz         
 
 Vector   15  Occ=0.000000D+00  E=-1.551034D-01
              MO Center= -7.3D-01,  2.4D-01,  1.1D+00, r^2= 4.0D+00
   Bfn.  Coefficient  Atom+Function         Bfn.  Coefficient  Atom+Function  
  ----- ------------  ---------------      ----- ------------  ---------------
     6      1.709605  1 C  s                 54     -1.610170  6 H  s          
    21      0.555581  2 C  s                 28      0.490421  2 C  px         
    42     -0.483040  5 O  s                  5      0.421327  1 C  s          
    33     -0.386472  3 H  s                 36     -0.386484  4 H  s          
    13     -0.375324  1 C  px                57     -0.346745  7 H  s          
 
 Vector   16  Occ=0.000000D+00  E=-1.388153D-01
              MO Center=  8.2D-01,  5.0D-01,  7.2D-01, r^2= 5.4D+00
   Bfn.  Coefficient  Atom+Function         Bfn.  Coefficient  Atom+Function  
  ----- ------------  ---------------      ----- ------------  ---------------
    21      2.408151  2 C  s                  6     -1.487801  1 C  s          
    33     -1.041667  3 H  s                 36     -1.041190  4 H  s          
    54      0.631471  6 H  s                 57     -0.538194  7 H  s          
    30      0.321675  2 C  pz                42      0.315859  5 O  s          
    20      0.284941  2 C  s                 53      0.252267  6 H  s          
 
 Vector   17  Occ=0.000000D+00  E=-1.077194D-01
              MO Center=  8.2D-01,  1.3D-01, -2.2D-01, r^2= 4.6D+00
   Bfn.  Coefficient  Atom+Function         Bfn.  Coefficient  Atom+Function  
  ----- ------------  ---------------      ----- ------------  ---------------
    57      1.889536  7 H  s                 30      1.183108  2 C  pz         
    33     -0.769012  3 H  s                 36     -0.766323  4 H  s          
    21     -0.705746  2 C  s                 60      0.692925  8 H  s          
    13      0.560851  1 C  px                 6     -0.505734  1 C  s          
    29      0.404824  2 C  py                42      0.386805  5 O  s          
 
 Vector   18  Occ=0.000000D+00  E=-1.060980D-01
              MO Center=  9.3D-01,  6.8D-01,  1.1D+00, r^2= 4.1D+00
   Bfn.  Coefficient  Atom+Function         Bfn.  Coefficient  Atom+Function  
  ----- ------------  ---------------      ----- ------------  ---------------
    33      1.775073  3 H  s                 36     -1.776611  4 H  s          
    29      1.380761  2 C  py                14     -0.671698  1 C  py         
    30     -0.534090  2 C  pz                26      0.380192  2 C  py         
    28     -0.371552  2 C  px                15      0.260562  1 C  pz         
    23      0.253610  2 C  py                32      0.228770  3 H  s          
 
 Vector   19  Occ=0.000000D+00  E=-6.427042D-02
              MO Center=  8.4D-01,  3.1D-01,  2.2D-01, r^2= 5.0D+00
   Bfn.  Coefficient  Atom+Function         Bfn.  Coefficient  Atom+Function  
  ----- ------------  ---------------      ----- ------------  ---------------
    28     -2.009448  2 C  px                21      1.852066  2 C  s          
    13     -1.686796  1 C  px                 6     -1.617039  1 C  s          
    57      1.078725  7 H  s                 14     -0.670215  1 C  py         
    29     -0.571351  2 C  py                15     -0.558731  1 C  pz         
    54     -0.560861  6 H  s                 60     -0.512667  8 H  s          
 
 Vector   20  Occ=0.000000D+00  E=-2.611111D-02
              MO Center=  4.2D-01,  2.1D-01,  2.6D-01, r^2= 6.2D+00
   Bfn.  Coefficient  Atom+Function         Bfn.  Coefficient  Atom+Function  
  ----- ------------  ---------------      ----- ------------  ---------------
    15      1.365483  1 C  pz                54     -1.231993  6 H  s          
     6     -1.099683  1 C  s                 28     -0.920651  2 C  px         
    57     -0.910965  7 H  s                 60      0.899487  8 H  s          
    30     -0.719076  2 C  pz                42      0.701698  5 O  s          
    14      0.565679  1 C  py                33      0.561909  3 H  s          
 
 Vector   21  Occ=0.000000D+00  E=-8.935999D-03
              MO Center=  1.5D-01,  6.8D-02,  7.1D-02, r^2= 4.3D+00
   Bfn.  Coefficient  Atom+Function         Bfn.  Coefficient  Atom+Function  
  ----- ------------  ---------------      ----- ------------  ---------------
    29      1.009099  2 C  py                14      0.754348  1 C  py         
    33      0.738156  3 H  s                 36     -0.738052  4 H  s          
    11     -0.541737  1 C  py                30     -0.391265  2 C  pz         
    32      0.335892  3 H  s                 35     -0.335873  4 H  s          
    15     -0.292365  1 C  pz                28     -0.271255  2 C  px         
 
 Vector   22  Occ=0.000000D+00  E= 2.715324D-02
              MO Center= -1.2D-01,  6.9D-02,  2.6D-01, r^2= 5.2D+00
   Bfn.  Coefficient  Atom+Function         Bfn.  Coefficient  Atom+Function  
  ----- ------------  ---------------      ----- ------------  ---------------
    13      3.105784  1 C  px                54      2.534107  6 H  s          
    30      2.191300  2 C  pz                21     -1.917432  2 C  s          
    15     -1.761926  1 C  pz                 6      1.520872  1 C  s          
    33     -1.269324  3 H  s                 36     -1.269873  4 H  s          
    57      1.014175  7 H  s                 42     -0.973721  5 O  s          
 
 Vector   23  Occ=0.000000D+00  E= 3.111683D-02
              MO Center=  7.7D-01,  3.1D-01,  2.7D-01, r^2= 5.6D+00
   Bfn.  Coefficient  Atom+Function         Bfn.  Coefficient  Atom+Function  
  ----- ------------  ---------------      ----- ------------  ---------------
    29      1.967268  2 C  py                14     -1.426669  1 C  py         
    30     -0.763988  2 C  pz                15      0.554078  1 C  pz         
    28     -0.529144  2 C  px                13      0.382284  1 C  px         
    32      0.367283  3 H  s                 35     -0.367182  4 H  s          
    26     -0.356063  2 C  py                11      0.285228  1 C  py         
 
 Vector   24  Occ=0.000000D+00  E= 4.692744D-02
              MO Center=  1.3D-01,  2.7D-01,  6.2D-01, r^2= 5.3D+00
   Bfn.  Coefficient  Atom+Function         Bfn.  Coefficient  Atom+Function  
  ----- ------------  ---------------      ----- ------------  ---------------
    30      2.094401  2 C  pz                13     -1.622118  1 C  px         
    21      1.377429  2 C  s                 57      1.033847  7 H  s          
    15     -0.947297  1 C  pz                28     -0.947343  2 C  px         
    14     -0.803635  1 C  py                 6     -0.716419  1 C  s          
    29      0.557313  2 C  py                53     -0.545245  6 H  s          
 
 Vector   25  Occ=0.000000D+00  E= 6.634047D-02
              MO Center=  1.4D-01,  3.1D-01,  7.0D-01, r^2= 3.4D+00
   Bfn.  Coefficient  Atom+Function         Bfn.  Coefficient  Atom+Function  
  ----- ------------  ---------------      ----- ------------  ---------------
    30      1.940912  2 C  pz                 6     -1.763677  1 C  s          
    57      1.455620  7 H  s                 15     -0.963365  1 C  pz         
    53      0.922396  6 H  s                 21      0.825482  2 C  s          
    25     -0.774498  2 C  px                33     -0.707253  3 H  s          
    36     -0.707629  4 H  s                 29      0.647430  2 C  py         
 
 Vector   26  Occ=0.000000D+00  E= 9.660770D-02
              MO Center= -7.7D-01, -5.0D-01, -7.5D-01, r^2= 5.1D+00
   Bfn.  Coefficient  Atom+Function         Bfn.  Coefficient  Atom+Function  
  ----- ------------  ---------------      ----- ------------  ---------------
    13      2.780114  1 C  px                54      2.261228  6 H  s          
    21     -1.945614  2 C  s                 28      1.526341  2 C  px         
    15     -1.294451  1 C  pz                60      1.270404  8 H  s          
    59     -1.213878  8 H  s                 57     -1.101868  7 H  s          
     6      0.701022  1 C  s                 20      0.586851  2 C  s          
 
 Vector   27  Occ=0.000000D+00  E= 1.219696D-01
              MO Center= -2.7D-01, -1.6D-01, -2.2D-01, r^2= 4.8D+00
   Bfn.  Coefficient  Atom+Function         Bfn.  Coefficient  Atom+Function  
  ----- ------------  ---------------      ----- ------------  ---------------
    15      2.937553  1 C  pz                30     -1.790407  2 C  pz         
    54     -1.395352  6 H  s                 60      1.070369  8 H  s          
    14      0.924852  1 C  py                13     -0.796954  1 C  px         
    57     -0.675477  7 H  s                  6      0.667722  1 C  s          
    28      0.655947  2 C  px                59     -0.645104  8 H  s          
 
 Vector   28  Occ=0.000000D+00  E= 2.020557D-01
              MO Center=  5.6D-01,  3.4D-01,  4.9D-01, r^2= 5.2D+00
   Bfn.  Coefficient  Atom+Function         Bfn.  Coefficient  Atom+Function  
  ----- ------------  ---------------      ----- ------------  ---------------
    33      2.049871  3 H  s                 36     -2.049434  4 H  s          
    29      1.520544  2 C  py                32     -0.945241  3 H  s          
    35      0.945673  4 H  s                 50      0.764192  5 O  py         
    26     -0.732879  2 C  py                30     -0.589651  2 C  pz         
    14     -0.560494  1 C  py                28     -0.410166  2 C  px         
 
 Vector   29  Occ=0.000000D+00  E= 2.091698D-01
              MO Center= -6.1D-01,  6.7D-02,  6.0D-01, r^2= 5.4D+00
   Bfn.  Coefficient  Atom+Function         Bfn.  Coefficient  Atom+Function  
  ----- ------------  ---------------      ----- ------------  ---------------
    54      3.722625  6 H  s                 13      2.740542  1 C  px         
    57     -1.951757  7 H  s                 28      1.640346  2 C  px         
    15     -1.360437  1 C  pz                53     -0.946137  6 H  s          
    10     -0.859353  1 C  px                 6     -0.844891  1 C  s          
    59      0.665123  8 H  s                 21     -0.612764  2 C  s          
 
 Vector   30  Occ=0.000000D+00  E= 2.407572D-01
              MO Center= -1.8D-01,  1.7D-01,  5.6D-01, r^2= 5.3D+00
   Bfn.  Coefficient  Atom+Function         Bfn.  Coefficient  Atom+Function  
  ----- ------------  ---------------      ----- ------------  ---------------
     6      5.261560  1 C  s                 21     -2.045220  2 C  s          
     5     -1.841303  1 C  s                 54     -1.790075  6 H  s          
    20      1.118816  2 C  s                 51     -0.956772  5 O  pz         
    28      0.810248  2 C  px                60     -0.802289  8 H  s          
    42     -0.711837  5 O  s                 15      0.610898  1 C  pz         
 
 Vector   31  Occ=0.000000D+00  E= 2.453318D-01
              MO Center=  4.8D-02, -7.8D-03, -5.4D-02, r^2= 6.1D+00
   Bfn.  Coefficient  Atom+Function         Bfn.  Coefficient  Atom+Function  
  ----- ------------  ---------------      ----- ------------  ---------------
    33      2.076459  3 H  s                 36     -2.076549  4 H  s          
    29      1.441345  2 C  py                50     -1.273684  5 O  py         
    32     -0.626213  3 H  s                 35      0.626654  4 H  s          
    26     -0.594417  2 C  py                14      0.581489  1 C  py         
    30     -0.558641  2 C  pz                51      0.494937  5 O  pz         
 
 Vector   32  Occ=0.000000D+00  E= 2.553120D-01
              MO Center=  1.0D+00,  3.5D-01,  1.9D-01, r^2= 4.9D+00
   Bfn.  Coefficient  Atom+Function         Bfn.  Coefficient  Atom+Function  
  ----- ------------  ---------------      ----- ------------  ---------------
     6      2.294849  1 C  s                 33     -1.924507  3 H  s          
    36     -1.925418  4 H  s                 57      1.928552  7 H  s          
    30      1.822673  2 C  pz                13      1.576648  1 C  px         
     5     -1.361237  1 C  s                 56     -1.250211  7 H  s          
    29      0.955139  2 C  py                28      0.923259  2 C  px         
 
 Vector   33  Occ=0.000000D+00  E= 2.693895D-01
              MO Center=  1.2D+00,  4.1D-01,  2.3D-01, r^2= 4.6D+00
   Bfn.  Coefficient  Atom+Function         Bfn.  Coefficient  Atom+Function  
  ----- ------------  ---------------      ----- ------------  ---------------
     6      3.973806  1 C  s                 57     -2.229880  7 H  s          
    28      2.059236  2 C  px                20     -1.842431  2 C  s          
     5     -1.449360  1 C  s                 13      1.301614  1 C  px         
    21      1.228739  2 C  s                 33     -1.229692  3 H  s          
    36     -1.230103  4 H  s                 56      1.031248  7 H  s          
 
 Vector   34  Occ=0.000000D+00  E= 2.946697D-01
              MO Center= -5.2D-01, -3.8D-01, -6.3D-01, r^2= 4.8D+00
   Bfn.  Coefficient  Atom+Function         Bfn.  Coefficient  Atom+Function  
  ----- ------------  ---------------      ----- ------------  ---------------
    13      2.154938  1 C  px                60      1.636097  8 H  s          
    51      1.627697  5 O  pz                57     -1.083934  7 H  s          
     5     -0.802583  1 C  s                 50      0.717025  5 O  py         
    53      0.706500  6 H  s                 28      0.669661  2 C  px         
    14      0.565751  1 C  py                32     -0.554793  3 H  s          
 
 Vector   35  Occ=0.000000D+00  E= 3.994518D-01
              MO Center= -2.5D-01, -3.0D-01, -6.1D-01, r^2= 4.3D+00
   Bfn.  Coefficient  Atom+Function         Bfn.  Coefficient  Atom+Function  
  ----- ------------  ---------------      ----- ------------  ---------------
    21      5.486694  2 C  s                 13     -4.304453  1 C  px         
    54     -3.265583  6 H  s                 49      3.226330  5 O  px         
    15      2.643809  1 C  pz                59      1.394162  8 H  s          
    30     -0.992719  2 C  pz                 6     -0.881078  1 C  s          
    57     -0.865861  7 H  s                 51     -0.717276  5 O  pz         
 
 Vector   36  Occ=0.000000D+00  E= 4.758395D-01
              MO Center=  7.7D-01,  3.3D-01,  3.1D-01, r^2= 4.8D+00
   Bfn.  Coefficient  Atom+Function         Bfn.  Coefficient  Atom+Function  
  ----- ------------  ---------------      ----- ------------  ---------------
    21     10.074217  2 C  s                  6     -5.944995  1 C  s          
    20     -2.663834  2 C  s                 13     -2.487544  1 C  px         
    28     -2.356347  2 C  px                32     -1.182380  3 H  s          
    35     -1.182320  4 H  s                 49     -1.169126  5 O  px         
     5      1.128842  1 C  s                 56     -1.084205  7 H  s          
 
 Vector   37  Occ=0.000000D+00  E= 7.969400D-01
              MO Center= -5.2D-01, -3.9D-01, -6.4D-01, r^2= 2.6D+00
   Bfn.  Coefficient  Atom+Function         Bfn.  Coefficient  Atom+Function  
  ----- ------------  ---------------      ----- ------------  ---------------
    42      5.833259  5 O  s                  6     -3.140448  1 C  s          
    41     -2.932869  5 O  s                 15      2.060433  1 C  pz         
    51      1.158583  5 O  pz                30     -1.126193  2 C  pz         
    54     -0.913136  6 H  s                 12      0.849427  1 C  pz         
    21      0.849636  2 C  s                 59     -0.740853  8 H  s          
 
 Vector   38  Occ=0.000000D+00  E= 1.064507D+00
              MO Center= -2.9D-01,  4.6D-02,  3.2D-01, r^2= 1.7D+00
   Bfn.  Coefficient  Atom+Function         Bfn.  Coefficient  Atom+Function  
  ----- ------------  ---------------      ----- ------------  ---------------
    11      1.533616  1 C  py                 8     -1.105721  1 C  py         
    14     -0.841557  1 C  py                12     -0.595513  1 C  pz         
     9      0.429116  1 C  pz                10     -0.413404  1 C  px         
    15      0.326613  1 C  pz                 7      0.297715  1 C  px         
    23     -0.265485  2 C  py                33     -0.250899  3 H  s          
 
 Vector   39  Occ=0.000000D+00  E= 1.065356D+00
              MO Center=  5.8D-02,  1.4D-01,  3.2D-01, r^2= 2.3D+00
   Bfn.  Coefficient  Atom+Function         Bfn.  Coefficient  Atom+Function  
  ----- ------------  ---------------      ----- ------------  ---------------
    10      1.809702  1 C  px                12      1.527965  1 C  pz         
    25      1.484791  2 C  px                11      1.080057  1 C  py         
    21     -0.984807  2 C  s                 42      0.940410  5 O  s          
     6     -0.847050  1 C  s                 28     -0.757751  2 C  px         
     9     -0.673479  1 C  pz                15     -0.640688  1 C  pz         
 
 Vector   40  Occ=0.000000D+00  E= 1.143389D+00
              MO Center=  4.6D-01,  2.9D-01,  4.4D-01, r^2= 2.2D+00
   Bfn.  Coefficient  Atom+Function         Bfn.  Coefficient  Atom+Function  
  ----- ------------  ---------------      ----- ------------  ---------------
    25      1.640348  2 C  px                54     -1.437093  6 H  s          
    10      1.371440  1 C  px                12     -1.350969  1 C  pz         
    28     -1.292535  2 C  px                13     -1.229323  1 C  px         
    57      1.169395  7 H  s                 15      0.969670  1 C  pz         
     5      0.837225  1 C  s                 22     -0.771314  2 C  px         
 
 Vector   41  Occ=0.000000D+00  E= 1.241421D+00
              MO Center=  9.4D-01,  3.9D-01,  3.4D-01, r^2= 1.8D+00
   Bfn.  Coefficient  Atom+Function         Bfn.  Coefficient  Atom+Function  
  ----- ------------  ---------------      ----- ------------  ---------------
    26      2.120240  2 C  py                29     -1.734820  2 C  py         
    33     -1.242392  3 H  s                 36      1.242136  4 H  s          
    23     -1.152954  2 C  py                27     -0.822321  2 C  pz         
    32      0.693763  3 H  s                 35     -0.693430  4 H  s          
    30      0.672848  2 C  pz                11     -0.621149  1 C  py         
 
 Vector   42  Occ=0.000000D+00  E= 1.293227D+00
              MO Center=  2.2D-01,  2.0D-01,  3.5D-01, r^2= 2.5D+00
   Bfn.  Coefficient  Atom+Function         Bfn.  Coefficient  Atom+Function  
  ----- ------------  ---------------      ----- ------------  ---------------
    10      1.705667  1 C  px                13     -1.141975  1 C  px         
     7     -0.936507  1 C  px                25     -0.890395  2 C  px         
     5     -0.877870  1 C  s                 20     -0.853538  2 C  s          
     6      0.815239  1 C  s                 22      0.771596  2 C  px         
    27     -0.591144  2 C  pz                54     -0.577388  6 H  s          
 
 Vector   43  Occ=0.000000D+00  E= 1.367130D+00
              MO Center=  6.2D-01,  3.7D-01,  5.2D-01, r^2= 2.4D+00
   Bfn.  Coefficient  Atom+Function         Bfn.  Coefficient  Atom+Function  
  ----- ------------  ---------------      ----- ------------  ---------------
    27      2.301456  2 C  pz                30     -1.975219  2 C  pz         
    12     -1.839333  1 C  pz                57     -1.474999  7 H  s          
    15      1.309800  1 C  pz                54     -1.180337  6 H  s          
    56      1.051575  7 H  s                 24     -1.005954  2 C  pz         
    53      0.990409  6 H  s                 33      0.952734  3 H  s          
 
 Vector   44  Occ=0.000000D+00  E= 1.776229D+00
              MO Center= -1.6D+00, -8.0D-01, -9.4D-01, r^2= 1.1D+00
   Bfn.  Coefficient  Atom+Function         Bfn.  Coefficient  Atom+Function  
  ----- ------------  ---------------      ----- ------------  ---------------
    59      2.307416  8 H  s                 58     -1.291256  8 H  s          
    60     -1.165314  8 H  s                 46      0.806277  5 O  px         
    42     -0.561312  5 O  s                 43     -0.555274  5 O  px         
    15     -0.404594  1 C  pz                 5      0.255679  1 C  s          
    54      0.253248  6 H  s                 21     -0.232794  2 C  s          
 
 Vector   45  Occ=0.000000D+00  E= 1.846777D+00
              MO Center=  5.0D-01,  3.8D-01,  6.4D-01, r^2= 3.2D+00
   Bfn.  Coefficient  Atom+Function         Bfn.  Coefficient  Atom+Function  
  ----- ------------  ---------------      ----- ------------  ---------------
     5      2.707904  1 C  s                 20     -2.293418  2 C  s          
     4     -1.912708  1 C  s                 19      1.719999  2 C  s          
    56      1.145918  7 H  s                 32      1.130324  3 H  s          
    35      1.130137  4 H  s                 53     -1.124578  6 H  s          
    54      1.119481  6 H  s                  6     -0.822757  1 C  s          
 
 Vector   46  Occ=0.000000D+00  E= 1.938016D+00
              MO Center= -2.6D-01,  2.7D-01,  8.7D-01, r^2= 2.9D+00
   Bfn.  Coefficient  Atom+Function         Bfn.  Coefficient  Atom+Function  
  ----- ------------  ---------------      ----- ------------  ---------------
    53      1.712809  6 H  s                 20     -1.467478  2 C  s          
     5     -1.308423  1 C  s                 19      1.260569  2 C  s          
    52     -1.147219  6 H  s                  6      0.985454  1 C  s          
     4      0.936004  1 C  s                 32      0.827857  3 H  s          
    35      0.827911  4 H  s                 56      0.635293  7 H  s          
 
 Vector   47  Occ=0.000000D+00  E= 2.059459D+00
              MO Center=  1.3D+00,  7.7D-01,  1.1D+00, r^2= 2.0D+00
   Bfn.  Coefficient  Atom+Function         Bfn.  Coefficient  Atom+Function  
  ----- ------------  ---------------      ----- ------------  ---------------
    32      1.629187  3 H  s                 35     -1.629120  4 H  s          
    31     -1.123114  3 H  s                 34      1.123028  4 H  s          
    33     -0.993674  3 H  s                 36      0.993632  4 H  s          
    14     -0.173083  1 C  py                26      0.152072  2 C  py         
    11      0.148723  1 C  py                47      0.122780  5 O  py         
 
 Vector   48  Occ=0.000000D+00  E= 2.077746D+00
              MO Center=  1.5D+00,  4.1D-01,  8.5D-03, r^2= 2.0D+00
   Bfn.  Coefficient  Atom+Function         Bfn.  Coefficient  Atom+Function  
  ----- ------------  ---------------      ----- ------------  ---------------
    56      1.853589  7 H  s                 55     -1.324605  7 H  s          
    57     -0.886091  7 H  s                 32     -0.785699  3 H  s          
    35     -0.786044  4 H  s                 31      0.597544  3 H  s          
    34      0.597797  4 H  s                 15     -0.474332  1 C  pz         
    33      0.413660  3 H  s                 36      0.413805  4 H  s          
 
 Vector   49  Occ=0.000000D+00  E= 2.134970D+00
              MO Center= -2.3D-01,  1.4D-01,  5.2D-01, r^2= 1.8D+00
   Bfn.  Coefficient  Atom+Function         Bfn.  Coefficient  Atom+Function  
  ----- ------------  ---------------      ----- ------------  ---------------
     5      4.272748  1 C  s                  6     -3.396108  1 C  s          
     4     -3.301385  1 C  s                 20      1.414967  2 C  s          
    19     -1.276051  2 C  s                 53      1.024752  6 H  s          
    28     -0.860742  2 C  px                52     -0.823855  6 H  s          
    21     -0.697291  2 C  s                  3      0.645509  1 C  s          
 
 Vector   50  Occ=0.000000D+00  E= 2.190073D+00
              MO Center= -6.8D-01, -4.9D-01, -8.0D-01, r^2= 1.1D+00
   Bfn.  Coefficient  Atom+Function         Bfn.  Coefficient  Atom+Function  
  ----- ------------  ---------------      ----- ------------  ---------------
    47      1.566341  5 O  py                44     -1.084378  5 O  py         
    50     -0.895405  5 O  py                48     -0.607430  5 O  pz         
    14      0.421826  1 C  py                45      0.420513  5 O  pz         
    46     -0.421352  5 O  px                51      0.347245  5 O  pz         
    43      0.291698  5 O  px                11     -0.259308  1 C  py         
 
 Vector   51  Occ=0.000000D+00  E= 2.334720D+00
              MO Center= -4.7D-01, -3.6D-01, -5.9D-01, r^2= 2.0D+00
   Bfn.  Coefficient  Atom+Function         Bfn.  Coefficient  Atom+Function  
  ----- ------------  ---------------      ----- ------------  ---------------
    20      1.653301  2 C  s                 21     -1.629624  2 C  s          
    48      1.518291  5 O  pz                 6      1.296357  1 C  s          
    19     -1.294501  2 C  s                 45     -0.986387  5 O  pz         
    51     -0.933623  5 O  pz                13     -0.820748  1 C  px         
    15      0.705584  1 C  pz                54     -0.612077  6 H  s          
 
 Vector   52  Occ=0.000000D+00  E= 2.510288D+00
              MO Center=  6.6D-01,  2.8D-01,  2.7D-01, r^2= 2.6D+00
   Bfn.  Coefficient  Atom+Function         Bfn.  Coefficient  Atom+Function  
  ----- ------------  ---------------      ----- ------------  ---------------
    21      6.643386  2 C  s                 20     -4.444550  2 C  s          
     6     -3.411348  1 C  s                 19      3.030254  2 C  s          
     5      2.018628  1 C  s                 13     -1.915458  1 C  px         
     4     -1.378583  1 C  s                 28     -1.159084  2 C  px         
    32     -1.042654  3 H  s                 35     -1.042662  4 H  s          
 
 Vector   53  Occ=0.000000D+00  E= 2.667380D+00
              MO Center= -6.2D-01, -4.6D-01, -7.5D-01, r^2= 1.7D+00
   Bfn.  Coefficient  Atom+Function         Bfn.  Coefficient  Atom+Function  
  ----- ------------  ---------------      ----- ------------  ---------------
    21      2.125749  2 C  s                 46     -1.728138  5 O  px         
    49      1.708214  5 O  px                20     -1.692480  2 C  s          
    13     -1.495236  1 C  px                54     -1.229377  6 H  s          
    19      1.146703  2 C  s                 59      1.141601  8 H  s          
    15      1.026132  1 C  pz                43      0.993329  5 O  px         
 
 Vector   54  Occ=0.000000D+00  E= 4.266900D+00
              MO Center= -6.6D-01, -4.8D-01, -7.8D-01, r^2= 8.7D-01
   Bfn.  Coefficient  Atom+Function         Bfn.  Coefficient  Atom+Function  
  ----- ------------  ---------------      ----- ------------  ---------------
    41      4.875090  5 O  s                 40     -3.853705  5 O  s          
    42     -3.590459  5 O  s                  6      1.593804  1 C  s          
    15     -1.045499  1 C  pz                39      0.812317  5 O  s          
    30      0.638795  2 C  pz                21     -0.588919  2 C  s          
    51     -0.540088  5 O  pz                59      0.531638  8 H  s          
 
 Vector   55  Occ=0.000000D+00  E= 1.119744D+01
              MO Center= -1.7D-01,  8.1D-02,  3.3D-01, r^2= 5.7D-01
   Bfn.  Coefficient  Atom+Function         Bfn.  Coefficient  Atom+Function  
  ----- ------------  ---------------      ----- ------------  ---------------
     4     -3.080924  1 C  s                  3      3.061864  1 C  s          
     5      2.550044  1 C  s                  2     -1.610392  1 C  s          
     6     -1.327197  1 C  s                 18      1.114568  2 C  s          
    19     -1.102256  2 C  s                 20      0.824216  2 C  s          
    17     -0.586854  2 C  s                 21     -0.323644  2 C  s          
 
 Vector   56  Occ=0.000000D+00  E= 1.146339D+01
              MO Center=  8.7D-01,  4.1D-01,  4.6D-01, r^2= 5.6D-01
   Bfn.  Coefficient  Atom+Function         Bfn.  Coefficient  Atom+Function  
  ----- ------------  ---------------      ----- ------------  ---------------
    19     -3.230993  2 C  s                 18      3.091636  2 C  s          
    20      2.924865  2 C  s                 21     -2.456553  2 C  s          
    17     -1.615919  2 C  s                  6      1.250264  1 C  s          
     4      1.198233  1 C  s                  5     -1.193177  1 C  s          
     3     -1.122452  1 C  s                  2      0.586103  1 C  s          
 
 Vector   57  Occ=0.000000D+00  E= 2.154410D+01
              MO Center= -6.9D-01, -5.0D-01, -8.2D-01, r^2= 2.0D-01
   Bfn.  Coefficient  Atom+Function         Bfn.  Coefficient  Atom+Function  
  ----- ------------  ---------------      ----- ------------  ---------------
    39      3.313762  5 O  s                 40     -3.184173  5 O  s          
    41      2.501447  5 O  s                 38     -1.740363  5 O  s          
    42     -1.490631  5 O  s                  6      0.601503  1 C  s          
    15     -0.424565  1 C  pz                30      0.249766  2 C  pz         
    51     -0.224445  5 O  pz                21     -0.185140  2 C  s          
 
 Vector   58  Occ=0.000000D+00  E= 6.213244D+01
              MO Center= -1.9D-01,  7.5D-02,  3.2D-01, r^2= 2.8D-01
   Bfn.  Coefficient  Atom+Function         Bfn.  Coefficient  Atom+Function  
  ----- ------------  ---------------      ----- ------------  ---------------
     2      2.773913  1 C  s                  3     -2.102800  1 C  s          
     1     -1.643655  1 C  s                  4      1.373309  1 C  s          
     5     -1.078350  1 C  s                 17      0.968143  2 C  s          
    18     -0.731118  2 C  s                 16     -0.575443  2 C  s          
     6      0.568398  1 C  s                 19      0.467697  2 C  s          
 
 Vector   59  Occ=0.000000D+00  E= 6.241301D+01
              MO Center=  8.8D-01,  4.1D-01,  4.6D-01, r^2= 2.8D-01
   Bfn.  Coefficient  Atom+Function         Bfn.  Coefficient  Atom+Function  
  ----- ------------  ---------------      ----- ------------  ---------------
    17      2.785868  2 C  s                 18     -2.128605  2 C  s          
    16     -1.645102  2 C  s                 19      1.445352  2 C  s          
    20     -1.238746  2 C  s                 21      1.034568  2 C  s          
     2     -0.979665  1 C  s                  3      0.751221  1 C  s          
     1      0.576768  1 C  s                  4     -0.522393  1 C  s          
 
 Vector   60  Occ=0.000000D+00  E= 1.174810D+02
              MO Center= -7.0D-01, -5.1D-01, -8.2D-01, r^2= 4.3D-02
   Bfn.  Coefficient  Atom+Function         Bfn.  Coefficient  Atom+Function  
  ----- ------------  ---------------      ----- ------------  ---------------
    38      2.967053  5 O  s                 39     -2.267444  5 O  s          
    37     -1.755869  5 O  s                 40      1.419226  5 O  s          
    41     -1.052260  5 O  s                 42      0.629470  5 O  s          
     6     -0.258887  1 C  s                 15      0.182068  1 C  pz         
    30     -0.107047  2 C  pz                51      0.095281  5 O  pz         
 

 center of mass
 --------------
 x =  -0.05892155 y =  -0.04668358 z =  -0.07953185

 moments of inertia (a.u.)
 ------------------
         104.140554054349         -51.539263301226         -58.189389065510
         -51.539263301226         182.345944273369         -40.382517863403
         -58.189389065510         -40.382517863403         148.090733829195
 
     Multipole analysis of the density
     ---------------------------------
 
     L   x y z        total         alpha         beta         nuclear
     -   - - -        -----         -----         ----         -------
     0   0 0 0      1.000000    -12.000000    -12.000000     25.000000
 
     1   1 0 0     -0.794158     -0.397079     -0.397079     -0.000000
     1   0 1 0      0.022365      0.011183      0.011183      0.000000
     1   0 0 1      0.608666      0.304333      0.304333     -0.000000
 
     2   2 0 0     -5.320420    -39.698073    -39.698073     74.075725
     2   1 1 0      2.740790    -14.375102    -14.375102     31.490994
     2   1 0 1      2.288925    -15.635854    -15.635854     33.560633
     2   0 2 0    -11.003297    -17.009912    -17.009912     23.016526
     2   0 1 1      1.212620    -11.214574    -11.214574     23.641767
     2   0 0 2    -10.671124    -26.869554    -26.869554     43.067984
 

 Task  times  cpu:        1.0s     wall:        1.1s
 
 
                                NWChem Input Module
                                -------------------
 
 
 Summary of allocated global arrays
-----------------------------------
  No active global arrays



                         GA Statistics for process    0
                         ------------------------------

       create   destroy   get      put      acc     scatter   gather  read&inc
calls:  158      158     2985      600     2080        0        0      341     
number of processes/call 1.24e+01 1.26e+01 8.58e+00 0.00e+00 0.00e+00
bytes total:             9.15e+06 1.83e+06 4.15e+06 0.00e+00 0.00e+00 2.73e+03
bytes remote:            6.28e+06 8.58e+05 3.15e+06 0.00e+00 0.00e+00 0.00e+00
Max memory consumed for GA by this process: 264160 bytes
 
 
 
                                     CITATION
                                     --------
                Please cite the following reference when publishing
                           results obtained with NWChem:
 
          E. Apr, E. J. Bylaska, W. A. de Jong, N. Govind, K. Kowalski,
       T. P. Straatsma, M. Valiev, H. J. J. van Dam, Y. Alexeev, J. Anchell,
       V. Anisimov, F. W. Aquino, R. Atta-Fynn, J. Autschbach, N. P. Bauman,
     J. C. Becca, D. E. Bernholdt, K. Bhaskaran-Nair, S. Bogatko, P. Borowski,
        J. Boschen, J. Brabec, A. Bruner, E. Caut, Y. Chen, G. N. Chuev,
      C. J. Cramer, J. Daily, M. J. O. Deegan, T. H. Dunning Jr., M. Dupuis,
   K. G. Dyall, G. I. Fann, S. A. Fischer, A. Fonari, H. Frchtl, L. Gagliardi,
      J. Garza, N. Gawande, S. Ghosh, K. Glaesemann, A. W. Gtz, J. Hammond,
       V. Helms, E. D. Hermes, K. Hirao, S. Hirata, M. Jacquelin, L. Jensen,
   B. G. Johnson, H. Jnsson, R. A. Kendall, M. Klemm, R. Kobayashi, V. Konkov,
      S. Krishnamoorthy, M. Krishnan, Z. Lin, R. D. Lins, R. J. Littlefield,
      A. J. Logsdail, K. Lopata, W. Ma, A. V. Marenich, J. Martin del Campo,
   D. Mejia-Rodriguez, J. E. Moore, J. M. Mullin, T. Nakajima, D. R. Nascimento,
    J. A. Nichols, P. J. Nichols, J. Nieplocha, A. Otero-de-la-Roza, B. Palmer,
    A. Panyala, T. Pirojsirikul, B. Peng, R. Peverati, J. Pittner, L. Pollack,
   R. M. Richard, P. Sadayappan, G. C. Schatz, W. A. Shelton, D. W. Silverstein,
   D. M. A. Smith, T. A. Soares, D. Song, M. Swart, H. L. Taylor, G. S. Thomas,
            V. Tipparaju, D. G. Truhlar, K. Tsemekhman, T. Van Voorhis,
     . Vzquez-Mayagoitia, P. Verma, O. Villa, A. Vishnu, K. D. Vogiatzis,
        D. Wang, J. H. Weare, M. J. Williamson, T. L. Windus, K. Woliski,
        A. T. Wong, Q. Wu, C. Yang, Q. Yu, M. Zacharias, Z. Zhang, Y. Zhao,
                                and R. J. Harrison
                        "NWChem: Past, present, and future
                         J. Chem. Phys. 152, 184102 (2020)
                               doi:10.1063/5.0004997
 
                                      AUTHORS
                                      -------
     E. Apra, E. J. Bylaska, N. Govind, K. Kowalski, M. Valiev, W. A. de Jong,
      T. P. Straatsma, H. J. J. van Dam, D. Wang, T. L. Windus, N. P. Bauman,
       A. Panyala, J. Hammond, J. Autschbach, K. Bhaskaran-Nair, J. Brabec,
    K. Lopata, S. A. Fischer, S. Krishnamoorthy, M. Jacquelin, W. Ma, M. Klemm,
       O. Villa, Y. Chen, V. Anisimov, F. Aquino, S. Hirata, M. T. Hackler,
           Eric Hermes, L. Jensen, J. E. Moore, J. C. Becca, V. Konjkov,
            D. Mejia-Rodriguez, T. Risthaus, M. Malagoli, A. Marenich,
   A. Otero-de-la-Roza, J. Mullin, P. Nichols, R. Peverati, J. Pittner, Y. Zhao,
        P.-D. Fan, A. Fonari, M. J. Williamson, R. J. Harrison, J. R. Rehr,
      M. Dupuis, D. Silverstein, D. M. A. Smith, J. Nieplocha, V. Tipparaju,
      M. Krishnan, B. E. Van Kuiken, A. Vazquez-Mayagoitia, M. Swart, Q. Wu,
   T. Van Voorhis, A. A. Auer, M. Nooijen, L. D. Crosby, E. Brown, G. Cisneros,
     G. I. Fann, H. Fruchtl, J. Garza, K. Hirao, R. A. Kendall, J. A. Nichols,
       K. Tsemekhman, K. Wolinski, J. Anchell, D. E. Bernholdt, P. Borowski,
       T. Clark, D. Clerc, H. Dachsel, M. J. O. Deegan, K. Dyall, D. Elwood,
      E. Glendening, M. Gutowski, A. C. Hess, J. Jaffe, B. G. Johnson, J. Ju,
        R. Kobayashi, R. Kutteh, Z. Lin, R. Littlefield, X. Long, B. Meng,
      T. Nakajima, S. Niu, L. Pollack, M. Rosing, K. Glaesemann, G. Sandrone,
      M. Stave, H. Taylor, G. Thomas, J. H. van Lenthe, A. T. Wong, Z. Zhang.

 Total times  cpu:        1.0s     wall:        1.2s
