 
             Northwest Computational Chemistry Package (NWChem) 7.0.0
             --------------------------------------------------------
 
 
                    Environmental Molecular Sciences Laboratory
                       Pacific Northwest National Laboratory
                                Richland, WA 99352
 
                              Copyright (c) 1994-2020
                       Pacific Northwest National Laboratory
                            Battelle Memorial Institute
 
             NWChem is an open-source computational chemistry package
                        distributed under the terms of the
                      Educational Community License (ECL) 2.0
             A copy of the license is included with this distribution
                              in the LICENSE.TXT file
 
                                  ACKNOWLEDGMENT
                                  --------------

            This software and its documentation were developed at the
            EMSL at Pacific Northwest National Laboratory, a multiprogram
            national laboratory, operated for the U.S. Department of Energy
            by Battelle under Contract Number DE-AC05-76RL01830. Support
            for this work was provided by the Department of Energy Office
            of Biological and Environmental Research, Office of Basic
            Energy Sciences, and the Office of Advanced Scientific Computing.


                                NWChem Input Module
                                -------------------
 
 
 Summary of "ao basis" -> "" (spherical)
 ------------------------------------------------------------------------------
       Tag                 Description            Shells   Functions and Types
 ---------------- ------------------------------  ------  ---------------------
 *                        ahlrichs_vtz                on all atoms 



 Scaling coordinates for geometry "geometry" by  1.889725989
 (inverse scale =  0.529177249)

 
 
                             Geometry "geometry" -> ""
                             -------------------------
 
 Output coordinates in angstroms (scale by  1.889725989 to convert to a.u.)
 
  No.       Tag          Charge          X              Y              Z
 ---- ---------------- ---------- -------------- -------------- --------------
    1 C                    6.0000     0.71660205    -0.58009068    -0.59776624
    2 C                    6.0000     1.86489511     0.33383747    -0.63267930
    3 H                    1.0000     2.64666937    -0.04725526     0.05598677
    4 H                    1.0000     1.59239555     1.33370245    -0.27712357
    5 O                    8.0000     0.66562999    -1.69865649    -1.28349537
    6 H                    1.0000     2.31750676     0.40021620    -1.63324740
    7 C                    6.0000    -0.50592963    -0.36905015     0.23147765
    8 Cl                  17.0000    -1.37446545     0.95610579    -0.76515152
    9 Cl                  17.0000    -0.07254942     0.14545552     1.92705226
   10 H                    1.0000    -1.15845905    -1.24181695     0.26601819
   11 H                    1.0000     1.42269521    -1.89031672    -1.90217632
 
      Atomic Mass 
      ----------- 
 
      C                 12.000000
      H                  1.007825
      O                 15.994910
      Cl                34.968850
 

 Effective nuclear repulsion energy (a.u.)     359.6215250012

            Nuclear Dipole moment (a.u.) 
            ----------------------------
        X                 Y               Z
 ---------------- ---------------- ----------------
     0.0000000000     0.0000000000    -0.0000000000
 
 
            XYZ format geometry
            -------------------
    11
 geometry
 C                     0.71660205    -0.58009068    -0.59776624
 C                     1.86489511     0.33383747    -0.63267930
 H                     2.64666937    -0.04725526     0.05598677
 H                     1.59239555     1.33370245    -0.27712357
 O                     0.66562999    -1.69865649    -1.28349537
 H                     2.31750676     0.40021620    -1.63324740
 C                    -0.50592963    -0.36905015     0.23147765
 Cl                   -1.37446545     0.95610579    -0.76515152
 Cl                   -0.07254942     0.14545552     1.92705226
 H                    -1.15845905    -1.24181695     0.26601819
 H                     1.42269521    -1.89031672    -1.90217632
 
 ==============================================================================
                                internuclear distances
 ------------------------------------------------------------------------------
       center one      |      center two      | atomic units |  angstroms
 ------------------------------------------------------------------------------
    2 C                |   1 C                |     2.77414  |     1.46801
    3 H                |   2 C                |     2.09637  |     1.10935
    4 H                |   2 C                |     2.07044  |     1.09563
    5 O                |   1 C                |     2.48124  |     1.31302
    6 H                |   2 C                |     2.07904  |     1.10018
    7 C                |   1 C                |     2.81992  |     1.49224
    8 Cl               |   7 C                |     3.53720  |     1.87181
    9 Cl               |   7 C                |     3.44714  |     1.82415
   10 H                |   7 C                |     2.06033  |     1.09028
   11 H                |   5 O                |     1.88277  |     0.99632
 ------------------------------------------------------------------------------
                         number of included internuclear distances:         10
 ==============================================================================



 ==============================================================================
                                 internuclear angles
 ------------------------------------------------------------------------------
        center 1       |       center 2       |       center 3       |  degrees
 ------------------------------------------------------------------------------
    2 C                |   1 C                |   5 O                |   123.25
    2 C                |   1 C                |   7 C                |   124.47
    5 O                |   1 C                |   7 C                |   112.27
    1 C                |   2 C                |   3 H                |   108.82
    1 C                |   2 C                |   4 H                |   111.46
    1 C                |   2 C                |   6 H                |   112.40
    3 H                |   2 C                |   4 H                |   106.70
    3 H                |   2 C                |   6 H                |   107.18
    4 H                |   2 C                |   6 H                |   110.02
    1 C                |   5 O                |  11 H                |   117.30
    1 C                |   7 C                |   8 Cl               |   100.63
    1 C                |   7 C                |   9 Cl               |   111.21
    1 C                |   7 C                |  10 H                |   113.25
    8 Cl               |   7 C                |   9 Cl               |   113.92
    8 Cl               |   7 C                |  10 H                |   107.81
    9 Cl               |   7 C                |  10 H                |   109.79
 ------------------------------------------------------------------------------
                            number of included internuclear angles:         16
 ==============================================================================



                              Aldehyde and Ketone set
                              -----------------------
 
                                 NWChem DFT Module
                                 -----------------
 
 
                              Aldehyde and Ketone set
 
 
                      Basis "ao basis" -> "ao basis" (spherical)
                      -----
  C (Carbon)
  ----------
            Exponent  Coefficients 
       -------------- ---------------------------------------------------------
  1 S  8.50603840E+03  0.000534
  1 S  1.27573290E+03  0.004125
  1 S  2.90311870E+02  0.021171
  1 S  8.20562000E+01  0.082418
  1 S  2.64796410E+01  0.240129
 
  2 S  9.24145850E+00  1.000000
 
  3 S  3.36435300E+00  1.000000
 
  4 S  8.71741640E-01  1.000000
 
  5 S  3.63523520E-01  1.000000
 
  6 S  1.28731350E-01  1.000000
 
  7 P  3.47094960E+01  0.005330
  7 P  7.95908830E+00  0.035866
  7 P  2.37869720E+00  0.142003
  7 P  8.15400650E-01  0.342031
 
  8 P  2.89537850E-01  1.000000
 
  9 P  1.00847540E-01  1.000000
 
  H (Hydrogen)
  ------------
            Exponent  Coefficients 
       -------------- ---------------------------------------------------------
  1 S  3.40613410E+01  0.006025
  1 S  5.12357460E+00  0.045021
  1 S  1.16466260E+00  0.201897
 
  2 S  3.27230410E-01  1.000000
 
  3 S  1.03072410E-01  1.000000
 
  O (Oxygen)
  ----------
            Exponent  Coefficients 
       -------------- ---------------------------------------------------------
  1 S  1.59026475E+04  0.000515
  1 S  2.38495378E+03  0.003982
  1 S  5.42719572E+02  0.020477
  1 S  1.53404079E+02  0.080262
  1 S  4.95457161E+01  0.237668
 
  2 S  1.73396499E+01  1.000000
 
  3 S  6.33033553E+00  1.000000
 
  4 S  1.69958822E+00  1.000000
 
  5 S  6.89544913E-01  1.000000
 
  6 S  2.39360282E-01  1.000000
 
  7 P  6.32705240E+01  0.006071
  7 P  1.46233123E+01  0.041948
  7 P  4.44895180E+00  0.161569
  7 P  1.52815132E+00  0.356828
 
  8 P  5.29973159E-01  1.000000
 
  9 P  1.75094460E-01  1.000000
 
  Cl (Chlorine)
  -------------
            Exponent  Coefficients 
       -------------- ---------------------------------------------------------
  1 S  1.17805790E+05  0.000242
  1 S  1.76602650E+04  0.001874
  1 S  4.01859730E+03  0.009736
  1 S  1.13622310E+03  0.039495
  1 S  3.68120620E+02  0.127972
 
  2 S  1.30861540E+02  1.000000
 
  3 S  5.04790110E+01  0.428741
  3 S  2.09168050E+01  0.196685
 
  4 S  6.35313880E+00  1.000000
 
  5 S  2.49480140E+00  1.000000
 
  6 S  5.43359480E-01  1.000000
 
  7 S  1.94343660E-01  1.000000
 
  8 P  6.81068790E+02  0.002366
  8 P  1.61113590E+02  0.018941
  8 P  5.13866370E+01  0.087845
  8 P  1.89585120E+01  0.257074
  8 P  3.00351580E+00  0.371524
 
  9 P  7.45652930E+00  1.000000
 
 10 P  1.06093610E+00  1.000000
 
 11 P  3.94520230E-01  1.000000
 
 12 P  1.33232790E-01  1.000000
 


 Summary of "ao basis" -> "ao basis" (spherical)
 ------------------------------------------------------------------------------
       Tag                 Description            Shells   Functions and Types
 ---------------- ------------------------------  ------  ---------------------
 C                        ahlrichs vtz               9       15   6s3p
 H                        ahlrichs vtz               3        3   3s
 O                        ahlrichs vtz               9       15   6s3p
 Cl                       ahlrichs vtz              12       22   7s5p




 Summary of "ao basis" -> "ao basis" (spherical)
 ------------------------------------------------------------------------------
       Tag                 Description            Shells   Functions and Types
 ---------------- ------------------------------  ------  ---------------------
 C                        ahlrichs vtz               9       15   6s3p
 H                        ahlrichs vtz               3        3   3s
 O                        ahlrichs vtz               9       15   6s3p
 Cl                       ahlrichs vtz              12       22   7s5p


  Caching 1-el integrals 
 
            General Information
            -------------------
          SCF calculation type: DFT
          Wavefunction type:  closed shell.
          No. of atoms     :    11
          No. of electrons :    64
           Alpha electrons :    32
            Beta electrons :    32
          Charge           :     1
          Spin multiplicity:     1
          Use of symmetry is: off; symmetry adaption is: off
          Maximum number of iterations: ***
          This is a Direct SCF calculation.
          AO basis - number of functions:   119
                     number of shells:    75
          Convergence on energy requested:  1.00D-08
          Convergence on density requested:  1.00D-07
          Convergence on gradient requested:  1.00D-06
 
              XC Information
              --------------
                        PBE96 Method XC Functional
          PerdewBurkeErnzerhof Exchange Functional  1.000          
            Perdew 1991 LDA Correlation Functional  1.000 local    
           PerdewBurkeErnz. Correlation Functional  1.000 non-local
 
             Grid Information
             ----------------
          Grid used for XC integration:  fine      
          Radial quadrature: Mura-Knowles        
          Angular quadrature: Lebedev. 
          Tag              B.-S. Rad. Rad. Pts. Rad. Cut. Ang. Pts.
          ---              ---------- --------- --------- ---------
          C                   0.70       70          11.0       590
          H                   0.35       60          12.0       590
          O                   0.60       70          11.0       590
          Cl                  1.00      123          12.0       770
          Grid pruning is: on 
          Number of quadrature shells:   826
          Spatial weights used:  Erf1
 
          Convergence Information
          -----------------------
          Convergence aids based upon iterative change in 
          total energy or number of iterations. 
          Levelshifting, if invoked, occurs when the 
          HOMO/LUMO gap drops below (HL_TOL):  1.00D-02
          DIIS, if invoked, will attempt to extrapolate 
          using up to (NFOCK): 10 stored Fock matrices.

                    Damping( 0%)  Levelshifting(0.5)       DIIS
                  --------------- ------------------- ---------------
          dE  on:    start            ASAP                start   
          dE off:    2 iters        *** iters           *** iters 

 
      Screening Tolerance Information
      -------------------------------
          Density screening/tol_rho:  1.00D-12
          AO Gaussian exp screening on grid/accAOfunc:  18
          CD Gaussian exp screening on grid/accCDfunc:  20
          XC Gaussian exp screening on grid/accXCfunc:  20
          Schwarz screening/accCoul:  1.00D-12

      Dispersion Parameters
      ---------------------

           DFT-D3BJ Model   
          s6 scale factor  :        1.000000000000
          s8 scale factor  :        0.787500000000
          a1 parameter     :        0.428900000000
          a2 parameter     :        4.440700000000
              vdW contrib  :       -0.010709938254


 Forcing the number of linearly dependent vectors to be  0
 
      Superposition of Atomic Density Guess
      -------------------------------------
 
 Sum of atomic energies:       -1109.25882515
   Time after variat. SCF:      0.2
   Time prior to 1st pass:      0.2

 Grid_pts file          = ./06_Cl2CHCOHCH3.gridpts.00
 Record size in doubles =  12289        No. of grid_pts per rec  =   3070
 Max. records in memory =     17        Max. recs in file   =  67550051

 Grid integrated density:      65.000000231988
 Requested integration accuracy:   0.10E-06

           Memory utilization after 1st SCF pass: 
           Heap Space remaining (MW):        0.00                 468
          Stack Space remaining (MW):      288.36           288357420

   convergence    iter        energy       DeltaE   RMS-Dens  Diis-err    time
 ---------------- ----- ----------------- --------- --------- ---------  ------
 d= 0,ls=0.0,diis     1  -1113.1839876248 -1.47D+03  2.29D-02  5.74D+01     0.4
 d= 0,ls=0.0,diis     2  -1111.9666671722  1.22D+00  1.32D-02  7.62D-01     0.8
 d= 0,ls=0.0,diis     3  -1111.8266097328  1.40D-01  7.05D-03  2.07D+00     1.1
 d= 0,ls=0.0,diis     4  -1112.0398727822 -2.13D-01  1.97D-03  1.40D-01     1.5
 d= 0,ls=0.0,diis     5  -1112.0535971087 -1.37D-02  7.78D-04  2.01D-02     1.8
 d= 0,ls=0.0,diis     6  -1112.0555061136 -1.91D-03  3.52D-04  1.50D-03     2.2
 d= 0,ls=0.0,diis     7  -1112.0556633378 -1.57D-04  1.45D-04  3.10D-04     2.5
 d= 0,ls=0.0,diis     8  -1112.0557083178 -4.50D-05  3.92D-05  1.77D-05     2.9
 d= 0,ls=0.0,diis     9  -1112.0557103389 -2.02D-06  1.43D-05  1.81D-06     3.2
 d= 0,ls=0.0,diis    10  -1112.0557105958 -2.57D-07  4.29D-06  1.74D-07     3.6
 d= 0,ls=0.0,diis    11  -1112.0557106162 -2.04D-08  1.48D-06  3.96D-08     4.0
 d= 0,ls=0.0,diis    12  -1112.0557106221 -5.93D-09  1.88D-07  6.97D-10     4.3
 d= 0,ls=0.0,diis    13  -1112.0557106222 -8.82D-11  4.64D-08  7.96D-12     4.7


         Total DFT energy =    -1112.055710622170
      One electron energy =    -2232.559402995851
           Coulomb energy =      843.062823757192
          Exchange energy =      -79.846729829322
       Correlation energy =       -2.323216617185
 Nuclear repulsion energy =      359.621525001250

    Dispersion correction =       -0.010709938254

 Numeric. integr. density =       64.000000394953

     Total iterative time =      4.5s


 
                       DFT Final Molecular Orbital Analysis
                       ------------------------------------
 
 Vector    1  Occ=2.000000D+00  E=-1.008837D+02
              MO Center= -1.4D+00,  9.6D-01, -7.7D-01, r^2= 3.1D-03
   Bfn.  Coefficient  Atom+Function         Bfn.  Coefficient  Atom+Function  
  ----- ------------  ---------------      ----- ------------  ---------------
    72      0.598197   8 Cl s                71      0.326071   8 Cl s         
    70      0.184384   8 Cl s         
 
 Vector    2  Occ=2.000000D+00  E=-1.008786D+02
              MO Center= -7.3D-02,  1.5D-01,  1.9D+00, r^2= 3.1D-03
   Bfn.  Coefficient  Atom+Function         Bfn.  Coefficient  Atom+Function  
  ----- ------------  ---------------      ----- ------------  ---------------
    94      0.598196   9 Cl s                93      0.326071   9 Cl s         
    92      0.184384   9 Cl s         
 
 Vector    3  Occ=2.000000D+00  E=-1.909437D+01
              MO Center=  6.7D-01, -1.7D+00, -1.3D+00, r^2= 1.5D-02
   Bfn.  Coefficient  Atom+Function         Bfn.  Coefficient  Atom+Function  
  ----- ------------  ---------------      ----- ------------  ---------------
    38      0.424643   5 O  s                39      0.366191   5 O  s         
    37      0.299520   5 O  s                40      0.055373   5 O  s         
 
 Vector    4  Occ=2.000000D+00  E=-1.028640D+01
              MO Center=  7.2D-01, -5.8D-01, -6.0D-01, r^2= 2.8D-02
   Bfn.  Coefficient  Atom+Function         Bfn.  Coefficient  Atom+Function  
  ----- ------------  ---------------      ----- ------------  ---------------
     2      0.424334   1 C  s                 3      0.359558   1 C  s         
     1      0.308814   1 C  s                 4      0.057266   1 C  s         
 
 Vector    5  Occ=2.000000D+00  E=-1.023555D+01
              MO Center= -5.1D-01, -3.7D-01,  2.3D-01, r^2= 2.8D-02
   Bfn.  Coefficient  Atom+Function         Bfn.  Coefficient  Atom+Function  
  ----- ------------  ---------------      ----- ------------  ---------------
    56      0.424471   7 C  s                57      0.359456   7 C  s         
    55      0.308880   7 C  s                58      0.057132   7 C  s         
 
 Vector    6  Occ=2.000000D+00  E=-1.012972D+01
              MO Center=  1.9D+00,  3.3D-01, -6.3D-01, r^2= 2.8D-02
   Bfn.  Coefficient  Atom+Function         Bfn.  Coefficient  Atom+Function  
  ----- ------------  ---------------      ----- ------------  ---------------
    17      0.424201   2 C  s                18      0.359420   2 C  s         
    16      0.308813   2 C  s                19      0.057784   2 C  s         
 
 Vector    7  Occ=2.000000D+00  E=-9.386988D+00
              MO Center= -1.4D+00,  9.5D-01, -7.6D-01, r^2= 6.6D-02
   Bfn.  Coefficient  Atom+Function         Bfn.  Coefficient  Atom+Function  
  ----- ------------  ---------------      ----- ------------  ---------------
    74      0.583426   8 Cl s                73      0.523024   8 Cl s         
    72     -0.293207   8 Cl s                71     -0.113721   8 Cl s         
    75      0.059668   8 Cl s                70     -0.054085   8 Cl s         
    76     -0.026455   8 Cl s         
 
 Vector    8  Occ=2.000000D+00  E=-9.382395D+00
              MO Center= -7.3D-02,  1.4D-01,  1.9D+00, r^2= 6.6D-02
   Bfn.  Coefficient  Atom+Function         Bfn.  Coefficient  Atom+Function  
  ----- ------------  ---------------      ----- ------------  ---------------
    96      0.583325   9 Cl s                95      0.523036   9 Cl s         
    94     -0.293205   9 Cl s                93     -0.113716   9 Cl s         
    97      0.059965   9 Cl s                92     -0.054084   9 Cl s         
    98     -0.027424   9 Cl s         
 
 Vector    9  Occ=2.000000D+00  E=-7.215265D+00
              MO Center= -1.4D+00,  9.6D-01, -7.7D-01, r^2= 5.8D-02
   Bfn.  Coefficient  Atom+Function         Bfn.  Coefficient  Atom+Function  
  ----- ------------  ---------------      ----- ------------  ---------------
    78      0.399119   8 Cl py               81      0.301441   8 Cl py        
    77     -0.286592   8 Cl px               79     -0.277569   8 Cl pz        
    80     -0.216452   8 Cl px               82     -0.209639   8 Cl pz        
    84      0.050748   8 Cl py               83     -0.036445   8 Cl px        
    85     -0.035289   8 Cl pz        
 
 Vector   10  Occ=2.000000D+00  E=-7.210769D+00
              MO Center= -7.2D-02,  1.5D-01,  1.9D+00, r^2= 5.8D-02
   Bfn.  Coefficient  Atom+Function         Bfn.  Coefficient  Atom+Function  
  ----- ------------  ---------------      ----- ------------  ---------------
   101      0.529453   9 Cl pz              104      0.399889   9 Cl pz        
   100      0.151001   9 Cl py               99      0.123779   9 Cl px        
   103      0.114048   9 Cl py              102      0.093489   9 Cl px        
   107      0.067368   9 Cl pz        
 
 Vector   11  Occ=2.000000D+00  E=-7.201100D+00
              MO Center= -1.4D+00,  9.6D-01, -7.7D-01, r^2= 5.8D-02
   Bfn.  Coefficient  Atom+Function         Bfn.  Coefficient  Atom+Function  
  ----- ------------  ---------------      ----- ------------  ---------------
    79      0.462061   8 Cl pz               82      0.348823   8 Cl pz        
    77     -0.309195   8 Cl px               80     -0.233419   8 Cl px        
    78      0.099312   8 Cl py               81      0.074972   8 Cl py        
    85      0.057718   8 Cl pz               83     -0.038643   8 Cl px        
 
 Vector   12  Occ=2.000000D+00  E=-7.199152D+00
              MO Center= -1.4D+00,  9.6D-01, -7.7D-01, r^2= 5.8D-02
   Bfn.  Coefficient  Atom+Function         Bfn.  Coefficient  Atom+Function  
  ----- ------------  ---------------      ----- ------------  ---------------
    78      0.386768   8 Cl py               77      0.375664   8 Cl px        
    81      0.291963   8 Cl py               80      0.283581   8 Cl px        
    79      0.168257   8 Cl pz               82      0.127014   8 Cl pz        
    84      0.048209   8 Cl py               83      0.046838   8 Cl px        
 
 Vector   13  Occ=2.000000D+00  E=-7.195878D+00
              MO Center= -7.3D-02,  1.5D-01,  1.9D+00, r^2= 5.8D-02
   Bfn.  Coefficient  Atom+Function         Bfn.  Coefficient  Atom+Function  
  ----- ------------  ---------------      ----- ------------  ---------------
    99      0.448236   9 Cl px              100     -0.343519   9 Cl py        
   102      0.338387   9 Cl px              103     -0.259332   9 Cl py        
   105      0.055996   9 Cl px              106     -0.042892   9 Cl py        
 
 Vector   14  Occ=2.000000D+00  E=-7.194728D+00
              MO Center= -7.3D-02,  1.5D-01,  1.9D+00, r^2= 5.8D-02
   Bfn.  Coefficient  Atom+Function         Bfn.  Coefficient  Atom+Function  
  ----- ------------  ---------------      ----- ------------  ---------------
   100      0.422070   9 Cl py               99      0.320491   9 Cl px        
   103      0.318621   9 Cl py              102      0.241940   9 Cl px        
   101     -0.195297   9 Cl pz              104     -0.147431   9 Cl pz        
   106      0.052650   9 Cl py              105      0.040004   9 Cl px        
 
 Vector   15  Occ=2.000000D+00  E=-1.291715D+00
              MO Center=  7.8D-01, -1.4D+00, -1.2D+00, r^2= 5.7D-01
   Bfn.  Coefficient  Atom+Function         Bfn.  Coefficient  Atom+Function  
  ----- ------------  ---------------      ----- ------------  ---------------
    41      0.515130   5 O  s                42      0.259447   5 O  s         
     5      0.197540   1 C  s                39     -0.141089   5 O  s         
    38     -0.117625   5 O  s                40      0.111647   5 O  s         
     8     -0.093493   1 C  py               44      0.086115   5 O  py        
    47      0.084142   5 O  py              117      0.073365  11 H  s         
 
 Vector   16  Occ=2.000000D+00  E=-1.040745D+00
              MO Center= -2.7D-01, -6.0D-02,  1.5D-01, r^2= 2.2D+00
   Bfn.  Coefficient  Atom+Function         Bfn.  Coefficient  Atom+Function  
  ----- ------------  ---------------      ----- ------------  ---------------
    59      0.362803   7 C  s                75      0.271655   8 Cl s         
    97      0.272722   9 Cl s                98      0.200758   9 Cl s         
    76      0.196062   8 Cl s                 5      0.178463   1 C  s         
    96     -0.167510   9 Cl s                74     -0.166440   8 Cl s         
    60      0.133410   7 C  s                41     -0.110536   5 O  s         
 
 Vector   17  Occ=2.000000D+00  E=-9.493843D-01
              MO Center= -5.0D-01,  2.9D-01,  6.8D-01, r^2= 2.8D+00
   Bfn.  Coefficient  Atom+Function         Bfn.  Coefficient  Atom+Function  
  ----- ------------  ---------------      ----- ------------  ---------------
    97      0.471579   9 Cl s                98      0.385988   9 Cl s         
    75     -0.381859   8 Cl s                76     -0.313437   8 Cl s         
    96     -0.288690   9 Cl s                74      0.233738   8 Cl s         
    95     -0.176501   9 Cl s                73      0.143104   8 Cl s         
    66      0.108797   7 C  pz               63      0.098179   7 C  pz        
 
 Vector   18  Occ=2.000000D+00  E=-9.418009D-01
              MO Center=  7.2D-01, -2.2D-02, -6.0D-01, r^2= 3.0D+00
   Bfn.  Coefficient  Atom+Function         Bfn.  Coefficient  Atom+Function  
  ----- ------------  ---------------      ----- ------------  ---------------
    20      0.342172   2 C  s                 5      0.307128   1 C  s         
    75     -0.295285   8 Cl s                76     -0.239735   8 Cl s         
    74      0.179855   8 Cl s                41     -0.138758   5 O  s         
    97     -0.115298   9 Cl s                73      0.109701   8 Cl s         
    21      0.105240   2 C  s                42     -0.094911   5 O  s         
 
 Vector   19  Occ=2.000000D+00  E=-8.815516D-01
              MO Center=  7.3D-01, -5.2D-01, -6.9D-01, r^2= 3.1D+00
   Bfn.  Coefficient  Atom+Function         Bfn.  Coefficient  Atom+Function  
  ----- ------------  ---------------      ----- ------------  ---------------
    20      0.284877   2 C  s                75      0.197658   8 Cl s         
    76      0.173582   8 Cl s                 5     -0.171650   1 C  s         
     7      0.146758   1 C  px               45     -0.147371   5 O  pz        
    59     -0.147175   7 C  s                97      0.140310   9 Cl s         
    43      0.124505   5 O  px               48     -0.121091   5 O  pz        
 
 Vector   20  Occ=2.000000D+00  E=-7.949081D-01
              MO Center=  1.4D-01, -7.3D-01, -4.2D-01, r^2= 3.6D+00
   Bfn.  Coefficient  Atom+Function         Bfn.  Coefficient  Atom+Function  
  ----- ------------  ---------------      ----- ------------  ---------------
    59      0.333715   7 C  s                97     -0.231344   9 Cl s         
    98     -0.222998   9 Cl s                75     -0.213999   8 Cl s         
    76     -0.208138   8 Cl s                44     -0.188595   5 O  py        
    45     -0.176062   5 O  pz               47     -0.152492   5 O  py        
    48     -0.147579   5 O  pz               60      0.143824   7 C  s         
 
 Vector   21  Occ=2.000000D+00  E=-7.126414D-01
              MO Center=  7.0D-01, -2.3D-01, -3.1D-01, r^2= 3.3D+00
   Bfn.  Coefficient  Atom+Function         Bfn.  Coefficient  Atom+Function  
  ----- ------------  ---------------      ----- ------------  ---------------
     5      0.242458   1 C  s                20     -0.218953   2 C  s         
    61      0.165503   7 C  px               21     -0.163879   2 C  s         
    22     -0.162697   2 C  px                6      0.159609   1 C  s         
    64      0.144139   7 C  px                8      0.135183   1 C  py        
    59     -0.129848   7 C  s                11      0.120252   1 C  py        
 
 Vector   22  Occ=2.000000D+00  E=-6.755417D-01
              MO Center=  5.8D-01, -5.4D-01, -4.5D-01, r^2= 3.3D+00
   Bfn.  Coefficient  Atom+Function         Bfn.  Coefficient  Atom+Function  
  ----- ------------  ---------------      ----- ------------  ---------------
    60      0.254310   7 C  s                10      0.210265   1 C  px        
     7      0.195337   1 C  px               43      0.195191   5 O  px        
    13      0.178018   1 C  px               46      0.164957   5 O  px        
    23     -0.156914   2 C  py               59      0.154792   7 C  s         
    41     -0.143251   5 O  s                61     -0.142703   7 C  px        
 
 Vector   23  Occ=2.000000D+00  E=-6.653564D-01
              MO Center=  7.1D-01, -6.4D-01, -7.4D-01, r^2= 2.8D+00
   Bfn.  Coefficient  Atom+Function         Bfn.  Coefficient  Atom+Function  
  ----- ------------  ---------------      ----- ------------  ---------------
     9      0.205038   1 C  pz               45      0.195549   5 O  pz        
    12      0.189447   1 C  pz               48      0.170981   5 O  pz        
    44     -0.162456   5 O  py               47     -0.138369   5 O  py        
    24      0.134193   2 C  pz               76      0.125681   8 Cl s         
    75      0.117929   8 Cl s                27      0.113596   2 C  pz        
 
 Vector   24  Occ=2.000000D+00  E=-6.057688D-01
              MO Center= -3.6D-01, -4.5D-02,  5.7D-01, r^2= 3.2D+00
   Bfn.  Coefficient  Atom+Function         Bfn.  Coefficient  Atom+Function  
  ----- ------------  ---------------      ----- ------------  ---------------
    65      0.257930   7 C  py              110     -0.255510   9 Cl pz        
    62      0.242563   7 C  py               98     -0.223725   9 Cl s         
    60      0.181047   7 C  s                88      0.160583   8 Cl pz        
     6     -0.145872   1 C  s                76     -0.138569   8 Cl s         
    97     -0.129635   9 Cl s               107     -0.127657   9 Cl pz        
 
 Vector   25  Occ=2.000000D+00  E=-5.908065D-01
              MO Center=  2.1D-03,  3.1D-01,  1.8D-02, r^2= 4.4D+00
   Bfn.  Coefficient  Atom+Function         Bfn.  Coefficient  Atom+Function  
  ----- ------------  ---------------      ----- ------------  ---------------
    66      0.223417   7 C  pz               87      0.214730   8 Cl py        
    63      0.179208   7 C  pz               76      0.168902   8 Cl s         
   110     -0.169212   9 Cl pz               98     -0.135454   9 Cl s         
    88     -0.125237   8 Cl pz              109     -0.123547   9 Cl py        
    65     -0.119644   7 C  py               86     -0.117657   8 Cl px        
 
 Vector   26  Occ=2.000000D+00  E=-5.845754D-01
              MO Center=  1.4D+00,  1.3D-01, -7.4D-01, r^2= 2.7D+00
   Bfn.  Coefficient  Atom+Function         Bfn.  Coefficient  Atom+Function  
  ----- ------------  ---------------      ----- ------------  ---------------
    24      0.232773   2 C  pz               27      0.212311   2 C  pz        
    53     -0.190379   6 H  s                22     -0.180111   2 C  px        
    61     -0.157630   7 C  px               25     -0.156049   2 C  px        
    64     -0.154929   7 C  px               52     -0.151801   6 H  s         
     7      0.119453   1 C  px               35      0.106811   4 H  s         
 
 Vector   27  Occ=2.000000D+00  E=-5.777212D-01
              MO Center=  1.2D+00, -5.2D-01, -6.3D-01, r^2= 3.5D+00
   Bfn.  Coefficient  Atom+Function         Bfn.  Coefficient  Atom+Function  
  ----- ------------  ---------------      ----- ------------  ---------------
    45      0.239103   5 O  pz               48      0.210515   5 O  pz        
    44     -0.172435   5 O  py               32     -0.155943   3 H  s         
    47     -0.147733   5 O  py               22     -0.145215   2 C  px        
    25     -0.138250   2 C  px               51      0.136000   5 O  pz        
    24     -0.134233   2 C  pz               27     -0.131385   2 C  pz        
 
 Vector   28  Occ=2.000000D+00  E=-5.654641D-01
              MO Center=  8.8D-01, -8.4D-01, -9.0D-01, r^2= 2.9D+00
   Bfn.  Coefficient  Atom+Function         Bfn.  Coefficient  Atom+Function  
  ----- ------------  ---------------      ----- ------------  ---------------
    43      0.287661   5 O  px               46      0.246569   5 O  px        
    44      0.206594   5 O  py               23      0.196955   2 C  py        
    26      0.194799   2 C  py               47      0.178346   5 O  py        
    41     -0.136851   5 O  s                35      0.132066   4 H  s         
     8     -0.125205   1 C  py               42     -0.119465   5 O  s         
 
 Vector   29  Occ=2.000000D+00  E=-4.771736D-01
              MO Center= -9.0D-01,  6.4D-01,  2.5D-02, r^2= 3.3D+00
   Bfn.  Coefficient  Atom+Function         Bfn.  Coefficient  Atom+Function  
  ----- ------------  ---------------      ----- ------------  ---------------
    88      0.309011   8 Cl pz              109      0.286726   9 Cl py        
    86     -0.246778   8 Cl px               87      0.232105   8 Cl py        
     6     -0.179077   1 C  s                91      0.171712   8 Cl pz        
   112      0.160261   9 Cl py                5      0.149805   1 C  s         
    89     -0.146781   8 Cl px               85      0.145264   8 Cl pz        
 
 Vector   30  Occ=2.000000D+00  E=-4.710828D-01
              MO Center= -6.7D-01,  5.2D-01,  4.9D-01, r^2= 3.7D+00
   Bfn.  Coefficient  Atom+Function         Bfn.  Coefficient  Atom+Function  
  ----- ------------  ---------------      ----- ------------  ---------------
   108      0.367535   9 Cl px               86     -0.298572   8 Cl px        
    87     -0.248626   8 Cl py              111      0.218290   9 Cl px        
    89     -0.188888   8 Cl px              105      0.167517   9 Cl px        
    90     -0.144755   8 Cl py               83     -0.137588   8 Cl px        
    84     -0.115254   8 Cl py              110     -0.113519   9 Cl pz        
 
 Vector   31  Occ=2.000000D+00  E=-4.594155D-01
              MO Center= -6.1D-01,  3.8D-01,  6.6D-01, r^2= 3.5D+00
   Bfn.  Coefficient  Atom+Function         Bfn.  Coefficient  Atom+Function  
  ----- ------------  ---------------      ----- ------------  ---------------
   108      0.369112   9 Cl px               86      0.285562   8 Cl px        
    87      0.215668   8 Cl py              111      0.214953   9 Cl px        
   105      0.169785   9 Cl px               89      0.161423   8 Cl px        
   109      0.146634   9 Cl py              115      0.146594  10 H  s         
    83      0.132908   8 Cl px                6     -0.131983   1 C  s         
 
 Vector   32  Occ=2.000000D+00  E=-4.567771D-01
              MO Center= -5.4D-01,  3.9D-01,  9.3D-01, r^2= 3.5D+00
   Bfn.  Coefficient  Atom+Function         Bfn.  Coefficient  Atom+Function  
  ----- ------------  ---------------      ----- ------------  ---------------
   109      0.412562   9 Cl py               88     -0.332165   8 Cl pz        
   112      0.239077   9 Cl py               91     -0.195873   8 Cl pz        
   110     -0.196456   9 Cl pz              106      0.190187   9 Cl py        
    85     -0.146437   8 Cl pz              100     -0.121551   9 Cl py        
   113     -0.114221   9 Cl pz               87     -0.101954   8 Cl py        
 
 Vector   33  Occ=0.000000D+00  E=-3.636037D-01
              MO Center=  5.3D-01, -4.8D-01, -6.0D-01, r^2= 2.9D+00
   Bfn.  Coefficient  Atom+Function         Bfn.  Coefficient  Atom+Function  
  ----- ------------  ---------------      ----- ------------  ---------------
    12      0.327626   1 C  pz                9      0.302504   1 C  pz        
    11     -0.216866   1 C  py               10      0.209095   1 C  px        
     8     -0.202201   1 C  py                7      0.186313   1 C  px        
    45     -0.182369   5 O  pz               15      0.176672   1 C  pz        
    86      0.177508   8 Cl px               51     -0.176374   5 O  pz        
 
 Vector   34  Occ=0.000000D+00  E=-2.575959D-01
              MO Center= -3.9D-01,  2.6D-02,  1.5D-01, r^2= 4.3D+00
   Bfn.  Coefficient  Atom+Function         Bfn.  Coefficient  Atom+Function  
  ----- ------------  ---------------      ----- ------------  ---------------
    60      1.016475   7 C  s                59      0.401790   7 C  s         
    42      0.381868   5 O  s                13      0.376641   1 C  px        
   113      0.361266   9 Cl pz               76     -0.348969   8 Cl s         
    65      0.338263   7 C  py               98     -0.326351   9 Cl s         
   110      0.307418   9 Cl pz               91     -0.295801   8 Cl pz        
 
 Vector   35  Occ=0.000000D+00  E=-2.126912D-01
              MO Center=  9.2D-01, -1.1D+00, -1.3D+00, r^2= 5.3D+00
   Bfn.  Coefficient  Atom+Function         Bfn.  Coefficient  Atom+Function  
  ----- ------------  ---------------      ----- ------------  ---------------
   119      0.895933  11 H  s                42     -0.483806   5 O  s         
     6     -0.341854   1 C  s               118      0.339793  11 H  s         
    76     -0.322877   8 Cl s                54      0.291404   6 H  s         
    21     -0.252880   2 C  s                49     -0.243024   5 O  px        
    36      0.235773   4 H  s                29     -0.211865   2 C  py        
 
 Vector   36  Occ=0.000000D+00  E=-1.945738D-01
              MO Center=  1.7D-01, -4.0D-01,  1.4D-01, r^2= 5.2D+00
   Bfn.  Coefficient  Atom+Function         Bfn.  Coefficient  Atom+Function  
  ----- ------------  ---------------      ----- ------------  ---------------
    98     -0.567284   9 Cl s                69      0.542954   7 C  pz        
    66      0.516371   7 C  pz              119      0.503025  11 H  s         
    21     -0.435394   2 C  s               113      0.422676   9 Cl pz        
    33      0.404195   3 H  s                63      0.343421   7 C  pz        
    76      0.314640   8 Cl s               110      0.292838   9 Cl pz        
 
 Vector   37  Occ=0.000000D+00  E=-1.400213D-01
              MO Center=  1.2D+00, -2.9D-01, -4.5D-01, r^2= 7.3D+00
   Bfn.  Coefficient  Atom+Function         Bfn.  Coefficient  Atom+Function  
  ----- ------------  ---------------      ----- ------------  ---------------
    21      1.458333   2 C  s                60      1.458798   7 C  s         
    54     -1.109136   6 H  s                33     -1.014621   3 H  s         
   116     -1.005201  10 H  s                 6     -0.877319   1 C  s         
    68     -0.607284   7 C  py               28      0.494010   2 C  px        
    13      0.367955   1 C  px               20      0.311960   2 C  s         
 
 Vector   38  Occ=0.000000D+00  E=-1.197864D-01
              MO Center=  1.0D+00, -3.7D-01, -1.7D-01, r^2= 6.8D+00
   Bfn.  Coefficient  Atom+Function         Bfn.  Coefficient  Atom+Function  
  ----- ------------  ---------------      ----- ------------  ---------------
    33      1.275958   3 H  s               116     -1.250671  10 H  s         
    21     -1.114897   2 C  s                 6      0.964276   1 C  s         
    36      0.842087   4 H  s                60      0.730205   7 C  s         
    30     -0.671216   2 C  pz               67     -0.494962   7 C  px        
    14     -0.480907   1 C  py              119     -0.470187  11 H  s         
 
 Vector   39  Occ=0.000000D+00  E=-1.074134D-01
              MO Center=  4.8D-01, -1.6D-01, -3.9D-01, r^2= 6.9D+00
   Bfn.  Coefficient  Atom+Function         Bfn.  Coefficient  Atom+Function  
  ----- ------------  ---------------      ----- ------------  ---------------
   116      1.809233  10 H  s                36      1.329888   4 H  s         
    54     -1.253831   6 H  s                68      1.018885   7 C  py        
    67      0.956003   7 C  px                6     -0.933403   1 C  s         
    30     -0.723103   2 C  pz               29     -0.708890   2 C  py        
    14     -0.569885   1 C  py               21      0.539147   2 C  s         
 
 Vector   40  Occ=0.000000D+00  E=-9.282420D-02
              MO Center=  1.3D+00, -2.8D-03, -5.9D-01, r^2= 5.9D+00
   Bfn.  Coefficient  Atom+Function         Bfn.  Coefficient  Atom+Function  
  ----- ------------  ---------------      ----- ------------  ---------------
     6      2.082684   1 C  s                60     -1.483405   7 C  s         
    36     -1.300149   4 H  s                54     -1.233027   6 H  s         
    33      1.100373   3 H  s                29      1.055287   2 C  py        
    21      0.853683   2 C  s                30     -0.694257   2 C  pz        
    42     -0.671993   5 O  s                14     -0.547107   1 C  py        
 
 Vector   41  Occ=0.000000D+00  E=-8.092672D-02
              MO Center=  1.7D+00,  1.2D-01, -3.9D-01, r^2= 4.6D+00
   Bfn.  Coefficient  Atom+Function         Bfn.  Coefficient  Atom+Function  
  ----- ------------  ---------------      ----- ------------  ---------------
     6      3.133295   1 C  s                33     -1.349043   3 H  s         
    28      1.307374   2 C  px               21     -1.060367   2 C  s         
    60     -0.797878   7 C  s                67     -0.706594   7 C  px        
    30      0.536713   2 C  pz               14      0.524317   1 C  py        
    36      0.508966   4 H  s                 5      0.490971   1 C  s         
 
 Vector   42  Occ=0.000000D+00  E=-4.069060D-02
              MO Center=  7.1D-01,  3.0D-01, -7.9D-02, r^2= 6.9D+00
   Bfn.  Coefficient  Atom+Function         Bfn.  Coefficient  Atom+Function  
  ----- ------------  ---------------      ----- ------------  ---------------
    13      2.069789   1 C  px               60      1.955680   7 C  s         
    67      1.635835   7 C  px               21     -1.549329   2 C  s         
    29      1.381068   2 C  py               69     -1.258765   7 C  pz        
    28      1.206258   2 C  px               36     -1.176113   4 H  s         
    15     -0.722169   1 C  pz              116      0.704777  10 H  s         
 
 Vector   43  Occ=0.000000D+00  E=-3.709001D-02
              MO Center=  1.2D+00, -5.6D-01, -1.1D+00, r^2= 5.8D+00
   Bfn.  Coefficient  Atom+Function         Bfn.  Coefficient  Atom+Function  
  ----- ------------  ---------------      ----- ------------  ---------------
    14      2.214702   1 C  py               28      1.705283   2 C  px        
    54     -1.531622   6 H  s                15      1.426853   1 C  pz        
    42      1.202160   5 O  s                21     -1.185399   2 C  s         
    36      1.181858   4 H  s                30     -1.082019   2 C  pz        
   119      0.885482  11 H  s                67     -0.776059   7 C  px        
 
 Vector   44  Occ=0.000000D+00  E=-4.689388D-03
              MO Center=  3.4D-01, -1.6D-01, -1.3D-01, r^2= 6.2D+00
   Bfn.  Coefficient  Atom+Function         Bfn.  Coefficient  Atom+Function  
  ----- ------------  ---------------      ----- ------------  ---------------
    69      1.527793   7 C  pz               30      1.090843   2 C  pz        
    29     -0.756937   2 C  py               13     -0.712229   1 C  px        
    98     -0.709736   9 Cl s                33     -0.677716   3 H  s         
    21      0.650527   2 C  s                67      0.645665   7 C  px        
    54      0.588598   6 H  s                76      0.584687   8 Cl s         
 
 Vector   45  Occ=0.000000D+00  E= 2.568884D-02
              MO Center=  1.9D+00, -2.2D-01, -4.5D-01, r^2= 5.3D+00
   Bfn.  Coefficient  Atom+Function         Bfn.  Coefficient  Atom+Function  
  ----- ------------  ---------------      ----- ------------  ---------------
    29      2.046164   2 C  py               30      1.432181   2 C  pz        
    60      1.296306   7 C  s                15     -1.146568   1 C  pz        
    36     -1.073228   4 H  s                13      1.043996   1 C  px        
    68     -0.896917   7 C  py               21     -0.831955   2 C  s         
    28     -0.656108   2 C  px               69      0.511325   7 C  pz        
 
 Vector   46  Occ=0.000000D+00  E= 4.143089D-02
              MO Center=  6.1D-01,  1.8D-01, -5.3D-01, r^2= 6.8D+00
   Bfn.  Coefficient  Atom+Function         Bfn.  Coefficient  Atom+Function  
  ----- ------------  ---------------      ----- ------------  ---------------
    13      1.950948   1 C  px               30     -1.735770   2 C  pz        
    21     -1.257655   2 C  s                68     -1.069163   7 C  py        
    29      0.964442   2 C  py               54     -0.835753   6 H  s         
    15      0.801219   1 C  pz               76      0.596008   8 Cl s         
    14      0.513603   1 C  py                6      0.459092   1 C  s         
 
 Vector   47  Occ=0.000000D+00  E= 6.458629D-02
              MO Center=  2.3D-01, -3.6D-01,  1.6D-01, r^2= 6.4D+00
   Bfn.  Coefficient  Atom+Function         Bfn.  Coefficient  Atom+Function  
  ----- ------------  ---------------      ----- ------------  ---------------
    69      1.588909   7 C  pz               13     -1.038448   1 C  px        
     6      0.998091   1 C  s                14      0.945150   1 C  py        
    60     -0.910133   7 C  s                98     -0.651421   9 Cl s         
    11     -0.522575   1 C  py               30     -0.516596   2 C  pz        
    67     -0.511253   7 C  px               59      0.493797   7 C  s         
 
 Vector   48  Occ=0.000000D+00  E= 6.867292D-02
              MO Center=  3.3D-01, -3.8D-01, -5.2D-01, r^2= 7.6D+00
   Bfn.  Coefficient  Atom+Function         Bfn.  Coefficient  Atom+Function  
  ----- ------------  ---------------      ----- ------------  ---------------
    13      4.111728   1 C  px               60      2.752797   7 C  s         
    15     -2.673845   1 C  pz               21     -2.350746   2 C  s         
    68     -1.717118   7 C  py               14      1.621836   1 C  py        
    30      1.617005   2 C  pz               33     -0.826699   3 H  s         
   119     -0.728501  11 H  s                36     -0.646921   4 H  s         
 
 Vector   49  Occ=0.000000D+00  E= 8.492804D-02
              MO Center=  3.6D-01, -4.8D-01, -7.8D-01, r^2= 5.5D+00
   Bfn.  Coefficient  Atom+Function         Bfn.  Coefficient  Atom+Function  
  ----- ------------  ---------------      ----- ------------  ---------------
    13      1.979160   1 C  px               69     -1.736141   7 C  pz        
    15      1.344882   1 C  pz               67     -1.325615   7 C  px        
    21     -1.259148   2 C  s                29      1.001362   2 C  py        
    54      0.992440   6 H  s                36     -0.820447   4 H  s         
    98      0.763432   9 Cl s                30      0.733562   2 C  pz        
 
 Vector   50  Occ=0.000000D+00  E= 9.724375D-02
              MO Center=  9.3D-01, -9.3D-01, -8.6D-01, r^2= 5.8D+00
   Bfn.  Coefficient  Atom+Function         Bfn.  Coefficient  Atom+Function  
  ----- ------------  ---------------      ----- ------------  ---------------
    14      1.497081   1 C  py              119      1.291896  11 H  s         
    21     -1.262065   2 C  s                13      1.080929   1 C  px        
   116     -0.878000  10 H  s               118     -0.769193  11 H  s         
    15      0.731051   1 C  pz               67     -0.723164   7 C  px        
    28     -0.627360   2 C  px               25      0.612953   2 C  px        
 
 Vector   51  Occ=0.000000D+00  E= 1.169464D-01
              MO Center=  3.1D-01, -4.1D-01, -1.9D-01, r^2= 5.9D+00
   Bfn.  Coefficient  Atom+Function         Bfn.  Coefficient  Atom+Function  
  ----- ------------  ---------------      ----- ------------  ---------------
    67      2.121163   7 C  px                6     -1.631760   1 C  s         
    14      1.453984   1 C  py               29     -1.168685   2 C  py        
   116      1.065176  10 H  s                13     -0.921666   1 C  px        
     5      0.810574   1 C  s                11     -0.636383   1 C  py        
    28      0.540415   2 C  px               30     -0.506942   2 C  pz        
 
 Vector   52  Occ=0.000000D+00  E= 1.354597D-01
              MO Center=  3.6D-01, -7.0D-01, -8.6D-01, r^2= 8.4D+00
   Bfn.  Coefficient  Atom+Function         Bfn.  Coefficient  Atom+Function  
  ----- ------------  ---------------      ----- ------------  ---------------
    60      3.156874   7 C  s                13      2.124187   1 C  px        
    68      1.345787   7 C  py               29      1.117602   2 C  py        
    36     -0.985949   4 H  s               119     -0.918057  11 H  s         
   118      0.903600  11 H  s                15     -0.704812   1 C  pz        
    14     -0.677722   1 C  py              113      0.673384   9 Cl pz        
 
 Vector   53  Occ=0.000000D+00  E= 1.669638D-01
              MO Center= -8.4D-01,  9.0D-01,  1.4D-01, r^2= 7.7D+00
   Bfn.  Coefficient  Atom+Function         Bfn.  Coefficient  Atom+Function  
  ----- ------------  ---------------      ----- ------------  ---------------
    68      1.723459   7 C  py               14     -1.505219   1 C  py        
     6     -1.067791   1 C  s                90     -1.016705   8 Cl py        
    21      0.928874   2 C  s               116      0.871787  10 H  s         
   113      0.866290   9 Cl pz               67      0.745986   7 C  px        
    36     -0.737354   4 H  s                29      0.686973   2 C  py        
 
 Vector   54  Occ=0.000000D+00  E= 1.719693D-01
              MO Center=  3.8D-02,  1.4D-01,  1.1D+00, r^2= 7.5D+00
   Bfn.  Coefficient  Atom+Function         Bfn.  Coefficient  Atom+Function  
  ----- ------------  ---------------      ----- ------------  ---------------
    60      1.538733   7 C  s               113      1.184864   9 Cl pz        
     6     -1.007495   1 C  s                14      0.824370   1 C  py        
   119      0.736213  11 H  s               110     -0.665916   9 Cl pz        
    13      0.632912   1 C  px               15      0.604385   1 C  pz        
    21     -0.601615   2 C  s                91     -0.602445   8 Cl pz        
 
 Vector   55  Occ=0.000000D+00  E= 1.878568D-01
              MO Center=  2.3D-01, -1.4D-01,  2.4D-01, r^2= 7.3D+00
   Bfn.  Coefficient  Atom+Function         Bfn.  Coefficient  Atom+Function  
  ----- ------------  ---------------      ----- ------------  ---------------
    60      3.208261   7 C  s                13      2.471559   1 C  px        
    15     -2.049431   1 C  pz                6     -1.020451   1 C  s         
    21     -0.936698   2 C  s               112      0.819012   9 Cl py        
    67      0.731083   7 C  px               90      0.714508   8 Cl py        
    33     -0.596800   3 H  s                30      0.580706   2 C  pz        
 
 Vector   56  Occ=0.000000D+00  E= 1.925109D-01
              MO Center=  4.5D-01,  1.1D-01, -1.3D-01, r^2= 7.8D+00
   Bfn.  Coefficient  Atom+Function         Bfn.  Coefficient  Atom+Function  
  ----- ------------  ---------------      ----- ------------  ---------------
    68      3.797168   7 C  py              116      3.421541  10 H  s         
    67      3.039991   7 C  px               13      2.816291   1 C  px        
    29      2.615943   2 C  py               36     -2.355863   4 H  s         
    15     -1.920796   1 C  pz               14     -1.401862   1 C  py        
    54     -1.228541   6 H  s                60      0.987383   7 C  s         
 
 Vector   57  Occ=0.000000D+00  E= 2.223349D-01
              MO Center=  9.5D-01,  2.4D-01,  1.5D-01, r^2= 8.3D+00
   Bfn.  Coefficient  Atom+Function         Bfn.  Coefficient  Atom+Function  
  ----- ------------  ---------------      ----- ------------  ---------------
    33      2.687426   3 H  s                13     -1.763753   1 C  px        
    30     -1.479507   2 C  pz                6     -1.405075   1 C  s         
    21      1.338091   2 C  s                67     -1.290621   7 C  px        
    28     -1.202776   2 C  px               32     -1.118275   3 H  s         
   116     -0.965962  10 H  s                14     -0.903433   1 C  py        
 
 Vector   58  Occ=0.000000D+00  E= 2.423032D-01
              MO Center=  1.0D+00,  4.7D-01, -8.8D-01, r^2= 7.9D+00
   Bfn.  Coefficient  Atom+Function         Bfn.  Coefficient  Atom+Function  
  ----- ------------  ---------------      ----- ------------  ---------------
    54      2.592023   6 H  s                 6     -2.167485   1 C  s         
    30      1.719468   2 C  pz               68      1.429397   7 C  py        
    33     -1.382977   3 H  s                53     -1.198143   6 H  s         
    14     -1.007920   1 C  py              116      0.976389  10 H  s         
    21      0.932780   2 C  s                91     -0.767259   8 Cl pz        
 
 Vector   59  Occ=0.000000D+00  E= 2.467078D-01
              MO Center= -5.7D-02, -4.1D-01, -2.6D-01, r^2= 7.0D+00
   Bfn.  Coefficient  Atom+Function         Bfn.  Coefficient  Atom+Function  
  ----- ------------  ---------------      ----- ------------  ---------------
   116      2.603774  10 H  s                13      1.678750   1 C  px        
    54     -1.678065   6 H  s               115     -1.124441  10 H  s         
    36      1.088212   4 H  s                28      1.001817   2 C  px        
    67      1.006816   7 C  px               59      0.986849   7 C  s         
    68      0.933188   7 C  py               33     -0.773274   3 H  s         
 
 Vector   60  Occ=0.000000D+00  E= 2.522632D-01
              MO Center= -3.5D-01,  4.9D-02, -5.0D-01, r^2= 7.9D+00
   Bfn.  Coefficient  Atom+Function         Bfn.  Coefficient  Atom+Function  
  ----- ------------  ---------------      ----- ------------  ---------------
    21      2.401360   2 C  s               116     -2.028269  10 H  s         
    14     -1.606010   1 C  py               13     -1.457182   1 C  px        
    67     -1.463038   7 C  px               29     -1.161640   2 C  py        
    91     -1.072646   8 Cl pz                6     -1.042541   1 C  s         
    36      1.038800   4 H  s                69      0.923599   7 C  pz        
 
 Vector   61  Occ=0.000000D+00  E= 2.558076D-01
              MO Center= -1.2D-02,  2.1D-01,  2.6D-01, r^2= 7.6D+00
   Bfn.  Coefficient  Atom+Function         Bfn.  Coefficient  Atom+Function  
  ----- ------------  ---------------      ----- ------------  ---------------
     6      2.869831   1 C  s                14      2.092507   1 C  py        
    68     -1.586814   7 C  py               60     -1.224754   7 C  s         
     5     -1.190360   1 C  s               112      1.154753   9 Cl py        
    15      1.134219   1 C  pz               21     -1.000337   2 C  s         
    30     -0.933481   2 C  pz              116     -0.926761  10 H  s         
 
 Vector   62  Occ=0.000000D+00  E= 2.640979D-01
              MO Center=  9.1D-01,  1.4D-01, -2.3D-01, r^2= 6.2D+00
   Bfn.  Coefficient  Atom+Function         Bfn.  Coefficient  Atom+Function  
  ----- ------------  ---------------      ----- ------------  ---------------
     6      4.906938   1 C  s                28      2.083888   2 C  px        
    33     -1.843715   3 H  s                 5     -1.709139   1 C  s         
    36      1.472523   4 H  s                67     -1.128901   7 C  px        
   116     -1.065683  10 H  s                14      0.957351   1 C  py        
    35     -0.864121   4 H  s                54     -0.749296   6 H  s         
 
 Vector   63  Occ=0.000000D+00  E= 2.789888D-01
              MO Center= -1.7D-01,  3.5D-01,  6.0D-01, r^2= 7.6D+00
   Bfn.  Coefficient  Atom+Function         Bfn.  Coefficient  Atom+Function  
  ----- ------------  ---------------      ----- ------------  ---------------
    13      1.661966   1 C  px               30      1.624420   2 C  pz        
    36     -1.538107   4 H  s                21     -1.525797   2 C  s         
    69     -1.409502   7 C  pz                6      1.397069   1 C  s         
    14      1.331299   1 C  py              111     -1.255224   9 Cl px        
    29      1.111333   2 C  py               54      1.037532   6 H  s         
 
 Vector   64  Occ=0.000000D+00  E= 2.950921D-01
              MO Center=  8.2D-01, -6.1D-01, -6.9D-01, r^2= 6.5D+00
   Bfn.  Coefficient  Atom+Function         Bfn.  Coefficient  Atom+Function  
  ----- ------------  ---------------      ----- ------------  ---------------
     6      2.396845   1 C  s                21      2.289237   2 C  s         
    13     -1.623714   1 C  px               20     -1.357234   2 C  s         
    67     -1.201317   7 C  px               50     -1.158812   5 O  py        
    14      1.070395   1 C  py               33     -0.992448   3 H  s         
    36     -0.989450   4 H  s               116     -0.943494  10 H  s         
 
 Vector   65  Occ=0.000000D+00  E= 3.018169D-01
              MO Center=  7.5D-01, -4.8D-01, -3.1D-01, r^2= 7.7D+00
   Bfn.  Coefficient  Atom+Function         Bfn.  Coefficient  Atom+Function  
  ----- ------------  ---------------      ----- ------------  ---------------
     6      3.563196   1 C  s                13      1.606162   1 C  px        
    36     -1.535673   4 H  s                51     -1.428048   5 O  pz        
    29      1.060440   2 C  py               28      0.971472   2 C  px        
    20     -0.855120   2 C  s               112      0.812136   9 Cl py        
     5     -0.790614   1 C  s                35      0.726384   4 H  s         
 
 Vector   66  Occ=0.000000D+00  E= 3.212122D-01
              MO Center=  1.2D+00, -7.7D-01, -1.0D+00, r^2= 7.5D+00
   Bfn.  Coefficient  Atom+Function         Bfn.  Coefficient  Atom+Function  
  ----- ------------  ---------------      ----- ------------  ---------------
    21      3.639509   2 C  s                 6     -2.005177   1 C  s         
    36     -1.805072   4 H  s                54     -1.673312   6 H  s         
    50      1.661894   5 O  py              119      1.584506  11 H  s         
    60      1.487609   7 C  s                29      1.407518   2 C  py        
    20     -1.285395   2 C  s                59     -0.732800   7 C  s         
 
 Vector   67  Occ=0.000000D+00  E= 4.003673D-01
              MO Center=  5.6D-01, -7.7D-01, -6.9D-01, r^2= 5.9D+00
   Bfn.  Coefficient  Atom+Function         Bfn.  Coefficient  Atom+Function  
  ----- ------------  ---------------      ----- ------------  ---------------
    60      5.940556   7 C  s                 6     -4.803984   1 C  s         
    13      3.293984   1 C  px               21      3.145128   2 C  s         
    49     -2.087391   5 O  px               15     -1.412091   1 C  pz        
    20     -1.360154   2 C  s                59     -1.137857   7 C  s         
    51      1.071906   5 O  pz              116     -0.889039  10 H  s         
 
 Vector   68  Occ=0.000000D+00  E= 4.831891D-01
              MO Center=  3.1D-01, -1.1D+00, -6.3D-01, r^2= 5.7D+00
   Bfn.  Coefficient  Atom+Function         Bfn.  Coefficient  Atom+Function  
  ----- ------------  ---------------      ----- ------------  ---------------
     6      7.527410   1 C  s                21     -6.207051   2 C  s         
    60     -4.038711   7 C  s                49     -2.599964   5 O  px        
    13      2.169775   1 C  px               14      1.898604   1 C  py        
    28      1.691725   2 C  px               59      1.648875   7 C  s         
    51      1.603943   5 O  pz                5     -1.509598   1 C  s         
 
 Vector   69  Occ=0.000000D+00  E= 5.286672D-01
              MO Center=  4.3D-01,  4.8D-03, -7.4D-02, r^2= 6.2D+00
   Bfn.  Coefficient  Atom+Function         Bfn.  Coefficient  Atom+Function  
  ----- ------------  ---------------      ----- ------------  ---------------
    60    -10.614217   7 C  s                21     10.135803   2 C  s         
    13     -7.400914   1 C  px               59      3.168703   7 C  s         
    15      2.756102   1 C  pz               14     -2.390573   1 C  py        
    29     -2.319819   2 C  py               20     -2.169675   2 C  s         
    67     -2.174088   7 C  px               28     -2.084728   2 C  px        
 
 Vector   70  Occ=0.000000D+00  E= 7.160032D-01
              MO Center= -4.6D-01,  2.0D-01,  6.5D-03, r^2= 5.3D+00
   Bfn.  Coefficient  Atom+Function         Bfn.  Coefficient  Atom+Function  
  ----- ------------  ---------------      ----- ------------  ---------------
    76      2.754019   8 Cl s                75     -2.092707   8 Cl s         
    98     -1.923149   9 Cl s                42     -1.757270   5 O  s         
    97      1.470568   9 Cl s                21      1.304910   2 C  s         
    13      1.092607   1 C  px                6     -0.981424   1 C  s         
    15     -0.900511   1 C  pz               41      0.904780   5 O  s         
 
 Vector   71  Occ=0.000000D+00  E= 7.746026D-01
              MO Center= -6.3D-03, -6.5D-02,  6.4D-01, r^2= 5.3D+00
   Bfn.  Coefficient  Atom+Function         Bfn.  Coefficient  Atom+Function  
  ----- ------------  ---------------      ----- ------------  ---------------
    98      3.271811   9 Cl s                13      2.802655   1 C  px        
    21     -2.524695   2 C  s                42     -2.525716   5 O  s         
    97     -2.263151   9 Cl s                 6      1.992729   1 C  s         
    76      1.689912   8 Cl s                15     -1.294153   1 C  pz        
    41      1.296111   5 O  s                75     -1.112140   8 Cl s         
 
 Vector   72  Occ=0.000000D+00  E= 8.875181D-01
              MO Center=  5.6D-03, -8.5D-01, -9.2D-01, r^2= 4.7D+00
   Bfn.  Coefficient  Atom+Function         Bfn.  Coefficient  Atom+Function  
  ----- ------------  ---------------      ----- ------------  ---------------
    42      5.125206   5 O  s                41     -2.514214   5 O  s         
    76      2.235361   8 Cl s                14      2.164892   1 C  py        
    21     -1.718766   2 C  s                 6     -1.509412   1 C  s         
    75     -1.467705   8 Cl s                60     -1.424124   7 C  s         
    13      1.272555   1 C  px               68     -1.230928   7 C  py        
 
 Vector   73  Occ=0.000000D+00  E= 1.079496D+00
              MO Center=  6.2D-01, -4.6D-01, -3.6D-01, r^2= 2.7D+00
   Bfn.  Coefficient  Atom+Function         Bfn.  Coefficient  Atom+Function  
  ----- ------------  ---------------      ----- ------------  ---------------
    11      1.868416   1 C  py               42      1.212111   5 O  s         
    64     -0.985392   7 C  px               68     -0.926982   7 C  py        
     8     -0.857697   1 C  py               98      0.816160   9 Cl s         
    76      0.809740   8 Cl s                10     -0.778329   1 C  px        
    13      0.736704   1 C  px               60     -0.646091   7 C  s         
 
 Vector   74  Occ=0.000000D+00  E= 1.085378D+00
              MO Center=  4.5D-01, -4.6D-01, -4.3D-01, r^2= 2.4D+00
   Bfn.  Coefficient  Atom+Function         Bfn.  Coefficient  Atom+Function  
  ----- ------------  ---------------      ----- ------------  ---------------
    12      1.646195   1 C  pz                9     -0.971824   1 C  pz        
    15     -0.880885   1 C  pz               66      0.883238   7 C  pz        
    98      0.859964   9 Cl s                60     -0.643052   7 C  s         
    63     -0.615644   7 C  pz               97     -0.544740   9 Cl s         
    69     -0.535749   7 C  pz               21     -0.454080   2 C  s         
 
 Vector   75  Occ=0.000000D+00  E= 1.146796D+00
              MO Center=  4.1D-01, -2.8D-01, -2.3D-01, r^2= 3.2D+00
   Bfn.  Coefficient  Atom+Function         Bfn.  Coefficient  Atom+Function  
  ----- ------------  ---------------      ----- ------------  ---------------
    10      2.100778   1 C  px               21     -1.747658   2 C  s         
    60      1.751516   7 C  s                64      1.681867   7 C  px        
    67     -1.545438   7 C  px              116     -1.320703  10 H  s         
    11      1.122776   1 C  py               25      1.110853   2 C  px        
    26      1.089815   2 C  py               12     -0.762151   1 C  pz        
 
 Vector   76  Occ=0.000000D+00  E= 1.213876D+00
              MO Center=  3.8D-01, -1.7D-01, -2.1D-01, r^2= 3.3D+00
   Bfn.  Coefficient  Atom+Function         Bfn.  Coefficient  Atom+Function  
  ----- ------------  ---------------      ----- ------------  ---------------
    68      1.180368   7 C  py               66      1.145183   7 C  pz        
    33     -0.995975   3 H  s                65     -0.968706   7 C  py        
    69     -0.960361   7 C  pz               25     -0.951638   2 C  px        
    30      0.879794   2 C  pz               14     -0.766327   1 C  py        
    13      0.699849   1 C  px               63     -0.679100   7 C  pz        
 
 Vector   77  Occ=0.000000D+00  E= 1.268910D+00
              MO Center=  6.5D-01,  8.2D-02, -2.3D-01, r^2= 4.0D+00
   Bfn.  Coefficient  Atom+Function         Bfn.  Coefficient  Atom+Function  
  ----- ------------  ---------------      ----- ------------  ---------------
    21      2.120105   2 C  s               116     -1.930992  10 H  s         
    13     -1.863395   1 C  px               60     -1.846564   7 C  s         
    68     -1.839616   7 C  py               65      1.641591   7 C  py        
    67     -1.551041   7 C  px               25     -1.462651   2 C  px        
    76      1.056962   8 Cl s                98      0.925581   9 Cl s         
 
 Vector   78  Occ=0.000000D+00  E= 1.278946D+00
              MO Center=  1.0D+00, -4.6D-03, -2.9D-01, r^2= 3.6D+00
   Bfn.  Coefficient  Atom+Function         Bfn.  Coefficient  Atom+Function  
  ----- ------------  ---------------      ----- ------------  ---------------
    27      1.731853   2 C  pz               14     -1.492816   1 C  py        
    54     -1.401861   6 H  s                30     -1.378054   2 C  pz        
    21      1.345810   2 C  s                64      1.165374   7 C  px        
     5     -1.078512   1 C  s                25     -0.915660   2 C  px        
    24     -0.894810   2 C  pz               42     -0.866453   5 O  s         
 
 Vector   79  Occ=0.000000D+00  E= 1.288660D+00
              MO Center=  8.2D-01, -3.1D-02, -4.0D-01, r^2= 3.6D+00
   Bfn.  Coefficient  Atom+Function         Bfn.  Coefficient  Atom+Function  
  ----- ------------  ---------------      ----- ------------  ---------------
    26      1.449246   2 C  py               15     -1.304862   1 C  pz        
    66     -1.307431   7 C  pz               33     -1.173464   3 H  s         
    25     -0.992986   2 C  px               28      0.994691   2 C  px        
    29     -0.963494   2 C  py               69      0.935980   7 C  pz        
    60      0.864593   7 C  s                36      0.836745   4 H  s         
 
 Vector   80  Occ=0.000000D+00  E= 1.415687D+00
              MO Center=  1.2D+00, -3.3D-02, -4.9D-01, r^2= 3.1D+00
   Bfn.  Coefficient  Atom+Function         Bfn.  Coefficient  Atom+Function  
  ----- ------------  ---------------      ----- ------------  ---------------
    36     -1.853168   4 H  s                11      1.733362   1 C  py        
    29      1.647850   2 C  py               27     -1.458238   2 C  pz        
    26     -1.436008   2 C  py               12      1.378307   1 C  pz        
    30      1.337419   2 C  pz               14     -1.140265   1 C  py        
    54      1.113769   6 H  s                15     -1.071760   1 C  pz        
 
 Vector   81  Occ=0.000000D+00  E= 1.453933D+00
              MO Center=  5.5D-01, -4.4D-01, -3.9D-01, r^2= 2.8D+00
   Bfn.  Coefficient  Atom+Function         Bfn.  Coefficient  Atom+Function  
  ----- ------------  ---------------      ----- ------------  ---------------
    10      1.858758   1 C  px               11      1.128748   1 C  py        
    68      1.101079   7 C  py               65     -1.053489   7 C  py        
   116      1.005419  10 H  s               115     -0.914974  10 H  s         
     7     -0.878444   1 C  px               20     -0.857352   2 C  s         
    64     -0.814065   7 C  px               67      0.781867   7 C  px        
 
 Vector   82  Occ=0.000000D+00  E= 1.797865D+00
              MO Center=  1.4D+00, -1.9D+00, -1.9D+00, r^2= 1.3D+00
   Bfn.  Coefficient  Atom+Function         Bfn.  Coefficient  Atom+Function  
  ----- ------------  ---------------      ----- ------------  ---------------
   118      2.312955  11 H  s               117     -1.284362  11 H  s         
   119     -1.122440  11 H  s                46     -0.668203   5 O  px        
    60     -0.610218   7 C  s                48      0.494607   5 O  pz        
    43      0.468671   5 O  px               42     -0.465087   5 O  s         
     5      0.450937   1 C  s                14     -0.408034   1 C  py        
 
 Vector   83  Occ=0.000000D+00  E= 1.886250D+00
              MO Center=  2.0D+00,  3.8D-01, -6.4D-01, r^2= 2.7D+00
   Bfn.  Coefficient  Atom+Function         Bfn.  Coefficient  Atom+Function  
  ----- ------------  ---------------      ----- ------------  ---------------
    20      2.712726   2 C  s                19     -2.088882   2 C  s         
     5     -1.582953   1 C  s                53     -1.439393   6 H  s         
    32     -1.392671   3 H  s                35     -1.281065   4 H  s         
     4      1.117951   1 C  s                54      0.783071   6 H  s         
    13     -0.745816   1 C  px               36      0.723908   4 H  s         
 
 Vector   84  Occ=0.000000D+00  E= 1.960874D+00
              MO Center= -7.8D-01, -6.7D-01,  1.6D-01, r^2= 2.5D+00
   Bfn.  Coefficient  Atom+Function         Bfn.  Coefficient  Atom+Function  
  ----- ------------  ---------------      ----- ------------  ---------------
    59      3.191374   7 C  s                58     -2.383365   7 C  s         
    60     -2.223622   7 C  s               115     -1.695237  10 H  s         
     5     -1.031205   1 C  s               114      1.018914  10 H  s         
     6      0.676943   1 C  s               116      0.672975  10 H  s         
     4      0.664060   1 C  s                68     -0.532446   7 C  py        
 
 Vector   85  Occ=0.000000D+00  E= 2.038036D+00
              MO Center= -4.5D-01,  4.8D-01,  4.5D-01, r^2= 4.7D+00
   Bfn.  Coefficient  Atom+Function         Bfn.  Coefficient  Atom+Function  
  ----- ------------  ---------------      ----- ------------  ---------------
    88     -1.291180   8 Cl pz               85      1.203197   8 Cl pz        
   110     -1.140138   9 Cl pz              107      1.078871   9 Cl pz        
   108     -0.632886   9 Cl px               91      0.625664   8 Cl pz        
   105      0.607769   9 Cl px              113      0.504448   9 Cl pz        
    53      0.491365   6 H  s                32     -0.421573   3 H  s         
 
 Vector   86  Occ=0.000000D+00  E= 2.063264D+00
              MO Center=  1.1D+00,  2.3D-01,  5.6D-02, r^2= 5.5D+00
   Bfn.  Coefficient  Atom+Function         Bfn.  Coefficient  Atom+Function  
  ----- ------------  ---------------      ----- ------------  ---------------
    32      1.171444   3 H  s                53     -0.989995   6 H  s         
     5     -0.917320   1 C  s                31     -0.817641   3 H  s         
    33     -0.816647   3 H  s                52      0.753117   6 H  s         
    86     -0.726579   8 Cl px                4      0.717476   1 C  s         
   108      0.707445   9 Cl px               83      0.681455   8 Cl px        
 
 Vector   87  Occ=0.000000D+00  E= 2.079933D+00
              MO Center= -1.7D-01,  4.9D-01,  3.4D-01, r^2= 4.8D+00
   Bfn.  Coefficient  Atom+Function         Bfn.  Coefficient  Atom+Function  
  ----- ------------  ---------------      ----- ------------  ---------------
   109     -1.176038   9 Cl py              106      1.100740   9 Cl py        
     5     -0.868982   1 C  s                87     -0.845750   8 Cl py        
    35     -0.820831   4 H  s                84      0.785264   8 Cl py        
    60     -0.752702   7 C  s               115      0.742399  10 H  s         
     4      0.709400   1 C  s                 6      0.674358   1 C  s         
 
 Vector   88  Occ=0.000000D+00  E= 2.092919D+00
              MO Center=  2.9D-01,  2.3D-01,  6.3D-01, r^2= 4.7D+00
   Bfn.  Coefficient  Atom+Function         Bfn.  Coefficient  Atom+Function  
  ----- ------------  ---------------      ----- ------------  ---------------
     5      1.736673   1 C  s                 6     -1.548267   1 C  s         
     4     -1.365238   1 C  s               108     -1.138854   9 Cl px        
   105      1.042035   9 Cl px               20      0.869347   2 C  s         
    19     -0.759741   2 C  s                87     -0.751890   8 Cl py        
    32      0.747123   3 H  s               110      0.702407   9 Cl pz        
 
 Vector   89  Occ=0.000000D+00  E= 2.104766D+00
              MO Center= -4.1D-01,  6.4D-01, -3.2D-01, r^2= 4.5D+00
   Bfn.  Coefficient  Atom+Function         Bfn.  Coefficient  Atom+Function  
  ----- ------------  ---------------      ----- ------------  ---------------
    60      1.315897   7 C  s                86      1.181981   8 Cl px        
    87      1.172810   8 Cl py               59     -1.092498   7 C  s         
    83     -1.076831   8 Cl px               84     -1.078324   8 Cl py        
    32      0.892753   3 H  s                58      0.773412   7 C  s         
     5     -0.677330   1 C  s                89     -0.651488   8 Cl px        
 
 Vector   90  Occ=0.000000D+00  E= 2.116140D+00
              MO Center= -2.7D-01,  4.8D-01,  4.1D-01, r^2= 4.5D+00
   Bfn.  Coefficient  Atom+Function         Bfn.  Coefficient  Atom+Function  
  ----- ------------  ---------------      ----- ------------  ---------------
     5      1.359401   1 C  s               109     -1.170235   9 Cl py        
     4     -1.122845   1 C  s               106      1.069406   9 Cl py        
    87      0.925670   8 Cl py                6     -0.889130   1 C  s         
    84     -0.832986   8 Cl py               86     -0.793481   8 Cl px        
    83      0.731486   8 Cl px               32      0.602868   3 H  s         
 
 Vector   91  Occ=0.000000D+00  E= 2.126345D+00
              MO Center=  7.9D-01,  6.6D-01, -3.6D-01, r^2= 5.2D+00
   Bfn.  Coefficient  Atom+Function         Bfn.  Coefficient  Atom+Function  
  ----- ------------  ---------------      ----- ------------  ---------------
    53     -1.178190   6 H  s                35      1.162887   4 H  s         
    34     -0.852423   4 H  s                52      0.832980   6 H  s         
    88     -0.775570   8 Cl pz              109     -0.771227   9 Cl py        
     6      0.764304   1 C  s               106      0.703413   9 Cl py        
    85      0.692410   8 Cl pz               59      0.605263   7 C  s         
 
 Vector   92  Occ=0.000000D+00  E= 2.176238D+00
              MO Center= -1.1D-01,  2.9D-01,  4.4D-01, r^2= 4.4D+00
   Bfn.  Coefficient  Atom+Function         Bfn.  Coefficient  Atom+Function  
  ----- ------------  ---------------      ----- ------------  ---------------
     6      2.879395   1 C  s                 5     -2.520282   1 C  s         
     4      1.794778   1 C  s               108     -1.335932   9 Cl px        
   105      1.183387   9 Cl px               20     -1.098249   2 C  s         
    88      1.018195   8 Cl pz               19      0.939703   2 C  s         
    85     -0.905878   8 Cl pz               67     -0.756006   7 C  px        
 
 Vector   93  Occ=0.000000D+00  E= 2.251157D+00
              MO Center=  6.4D-01, -1.5D+00, -1.0D+00, r^2= 2.3D+00
   Bfn.  Coefficient  Atom+Function         Bfn.  Coefficient  Atom+Function  
  ----- ------------  ---------------      ----- ------------  ---------------
    48      1.277390   5 O  pz               45     -0.852038   5 O  pz        
    47     -0.820060   5 O  py               51     -0.803941   5 O  pz        
    13      0.784332   1 C  px                5     -0.747598   1 C  s         
    46      0.732261   5 O  px               15      0.586268   1 C  pz        
   110      0.583682   9 Cl pz               44      0.567245   5 O  py        
 
 Vector   94  Occ=0.000000D+00  E= 2.266386D+00
              MO Center=  1.6D-01,  5.4D-02, -9.3D-02, r^2= 4.7D+00
   Bfn.  Coefficient  Atom+Function         Bfn.  Coefficient  Atom+Function  
  ----- ------------  ---------------      ----- ------------  ---------------
     5      3.017217   1 C  s                 6     -2.542694   1 C  s         
     4     -2.055723   1 C  s               110     -1.147811   9 Cl pz        
    14     -0.999992   1 C  py              107      0.993852   9 Cl pz        
    86      0.920771   8 Cl px               47     -0.814964   5 O  py        
    83     -0.771707   8 Cl px               19     -0.750732   2 C  s         
 
 Vector   95  Occ=0.000000D+00  E= 2.333898D+00
              MO Center=  2.6D-01, -1.2D+00, -7.4D-01, r^2= 3.0D+00
   Bfn.  Coefficient  Atom+Function         Bfn.  Coefficient  Atom+Function  
  ----- ------------  ---------------      ----- ------------  ---------------
    60      3.262005   7 C  s                59     -2.140262   7 C  s         
    21     -2.035260   2 C  s                58      1.422091   7 C  s         
     5     -1.284927   1 C  s                 4      1.134939   1 C  s         
   115     -1.092400  10 H  s                20      1.039299   2 C  s         
    46     -0.922813   5 O  px               47     -0.917663   5 O  py        
 
 Vector   96  Occ=0.000000D+00  E= 2.423922D+00
              MO Center= -5.0D-02, -5.4D-01, -1.1D-01, r^2= 3.4D+00
   Bfn.  Coefficient  Atom+Function         Bfn.  Coefficient  Atom+Function  
  ----- ------------  ---------------      ----- ------------  ---------------
    60      6.415203   7 C  s                 6     -4.460190   1 C  s         
    59     -4.347996   7 C  s                58      2.822115   7 C  s         
     5      2.461675   1 C  s                21      2.200883   2 C  s         
    20     -1.757443   2 C  s                13      1.677753   1 C  px        
[...]
 Vector   99  Occ=0.000000D+00  E= 4.334751D+00
              MO Center=  6.5D-01, -1.7D+00, -1.3D+00, r^2= 8.9D-01
   Bfn.  Coefficient  Atom+Function         Bfn.  Coefficient  Atom+Function  
  ----- ------------  ---------------      ----- ------------  ---------------
    41      5.025867   5 O  s                40     -3.898914   5 O  s         
    42     -3.892598   5 O  s                 6      1.422761   1 C  s         
    14     -1.184679   1 C  py               15     -0.814610   1 C  pz        
    39      0.815402   5 O  s               118      0.600646  11 H  s         
    50     -0.588054   5 O  py               68      0.571557   7 C  py        
 
 Vector  100  Occ=0.000000D+00  E= 8.802661D+00
              MO Center= -1.1D+00,  7.9D-01, -2.7D-01, r^2= 1.8D+00
   Bfn.  Coefficient  Atom+Function         Bfn.  Coefficient  Atom+Function  
  ----- ------------  ---------------      ----- ------------  ---------------
    74      2.927922   8 Cl s                73     -2.437555   8 Cl s         
    75     -1.891295   8 Cl s                96     -1.379886   9 Cl s         
    76      1.365867   8 Cl s                95      1.150289   9 Cl s         
    97      0.869228   9 Cl s                98     -0.568023   9 Cl s         
    72      0.415746   8 Cl s                13      0.359720   1 C  px        
 
 Vector  101  Occ=0.000000D+00  E= 8.838326D+00
              MO Center= -3.1D-01,  2.9D-01,  1.4D+00, r^2= 1.8D+00
   Bfn.  Coefficient  Atom+Function         Bfn.  Coefficient  Atom+Function  
  ----- ------------  ---------------      ----- ------------  ---------------
    96      2.938151   9 Cl s                95     -2.438687   9 Cl s         
    97     -1.947817   9 Cl s                98      1.550751   9 Cl s         
    74      1.383069   8 Cl s                73     -1.146417   8 Cl s         
    75     -0.939457   8 Cl s                76      0.806055   8 Cl s         
    68     -0.691968   7 C  py               13      0.603616   1 C  px        
 
 Vector  102  Occ=0.000000D+00  E= 1.128048D+01
              MO Center=  7.4D-01, -4.4D-01, -5.2D-01, r^2= 8.5D-01
   Bfn.  Coefficient  Atom+Function         Bfn.  Coefficient  Atom+Function  
  ----- ------------  ---------------      ----- ------------  ---------------
     4     -2.992365   1 C  s                 3      2.900959   1 C  s         
     5      2.559140   1 C  s                 6     -1.534145   1 C  s         
     2     -1.515597   1 C  s                18      1.158661   2 C  s         
    19     -1.144192   2 C  s                58     -1.031137   7 C  s         
    57      1.023466   7 C  s                59      0.846091   7 C  s         
 
 Vector  103  Occ=0.000000D+00  E= 1.141733D+01
              MO Center= -3.1D-01, -3.8D-01,  1.1D-01, r^2= 7.1D-01
   Bfn.  Coefficient  Atom+Function         Bfn.  Coefficient  Atom+Function  
  ----- ------------  ---------------      ----- ------------  ---------------
    58     -3.228361   7 C  s                59      3.053864   7 C  s         
    57      3.036060   7 C  s                60     -3.042114   7 C  s         
    56     -1.581219   7 C  s                 6      1.568665   1 C  s         
     5     -1.359295   1 C  s                 4      1.334930   1 C  s         
     3     -1.225002   1 C  s                13     -0.850003   1 C  px        
 
 Vector  104  Occ=0.000000D+00  E= 1.147263D+01
              MO Center=  1.6D+00,  2.2D-01, -5.8D-01, r^2= 8.4D-01
   Bfn.  Coefficient  Atom+Function         Bfn.  Coefficient  Atom+Function  
  ----- ------------  ---------------      ----- ------------  ---------------
    19     -3.212494   2 C  s                18      3.056385   2 C  s         
    20      2.953258   2 C  s                21     -2.800712   2 C  s         
    17     -1.596065   2 C  s                 6      1.101596   1 C  s         
     4      1.032907   1 C  s                 5     -1.026407   1 C  s         
     3     -0.957443   1 C  s                60      0.931329   7 C  s         
 
 Vector  105  Occ=0.000000D+00  E= 2.161228D+01
              MO Center=  6.6D-01, -1.7D+00, -1.3D+00, r^2= 2.0D-01
   Bfn.  Coefficient  Atom+Function         Bfn.  Coefficient  Atom+Function  
  ----- ------------  ---------------      ----- ------------  ---------------
    39      3.323669   5 O  s                40     -3.223981   5 O  s         
    41      2.584832   5 O  s                38     -1.742076   5 O  s         
    42     -1.627199   5 O  s                 6      0.525017   1 C  s         
    14     -0.491055   1 C  py               15     -0.349867   1 C  pz        
    50     -0.246087   5 O  py               68      0.221108   7 C  py        
 
 Vector  106  Occ=0.000000D+00  E= 4.053519D+01
              MO Center= -8.5D-01,  6.3D-01,  3.2D-01, r^2= 2.4D+00
   Bfn.  Coefficient  Atom+Function         Bfn.  Coefficient  Atom+Function  
  ----- ------------  ---------------      ----- ------------  ---------------
    79      1.923938   8 Cl pz               82     -1.718889   8 Cl pz        
   101      1.413080   9 Cl pz              104     -1.262420   9 Cl pz        
    99      0.725534   9 Cl px               77      0.711840   8 Cl px        
   102     -0.648286   9 Cl px               80     -0.635855   8 Cl px        
    85     -0.580500   8 Cl pz              100     -0.567167   9 Cl py        
 
 Vector  107  Occ=0.000000D+00  E= 4.054498D+01
              MO Center= -9.0D-01,  6.6D-01,  2.1D-01, r^2= 2.3D+00
   Bfn.  Coefficient  Atom+Function         Bfn.  Coefficient  Atom+Function  
  ----- ------------  ---------------      ----- ------------  ---------------
    78      1.867843   8 Cl py               81     -1.668267   8 Cl py        
   100      1.536649   9 Cl py              103     -1.372871   9 Cl py        
    79      0.950215   8 Cl pz               82     -0.848963   8 Cl pz        
    84     -0.566157   8 Cl py              106     -0.463597   9 Cl py        
    77     -0.334100   8 Cl px               99     -0.309029   9 Cl px        
 
 Vector  108  Occ=0.000000D+00  E= 4.054758D+01
              MO Center= -1.2D+00,  8.2D-01, -3.3D-01, r^2= 1.4D+00
   Bfn.  Coefficient  Atom+Function         Bfn.  Coefficient  Atom+Function  
  ----- ------------  ---------------      ----- ------------  ---------------
    77      2.108027   8 Cl px               80     -1.882907   8 Cl px        
    99     -0.956478   9 Cl px               78      0.939678   8 Cl py        
   102      0.854441   9 Cl px               81     -0.839356   8 Cl py        
    79     -0.761414   8 Cl pz               82      0.680059   8 Cl pz        
    83     -0.638632   8 Cl px              101      0.351793   9 Cl pz        
 
 Vector  109  Occ=0.000000D+00  E= 4.055320D+01
              MO Center= -4.7D-01,  3.9D-01,  1.1D+00, r^2= 2.1D+00
   Bfn.  Coefficient  Atom+Function         Bfn.  Coefficient  Atom+Function  
  ----- ------------  ---------------      ----- ------------  ---------------
   100      1.910365   9 Cl py              103     -1.706167   9 Cl py        
    78     -1.394234   8 Cl py               81      1.244796   8 Cl py        
   101      0.934113   9 Cl pz              104     -0.833861   9 Cl pz        
    99     -0.612908   9 Cl px              106     -0.579715   9 Cl py        
   102      0.547523   9 Cl px               77      0.460705   8 Cl px        
 
 Vector  110  Occ=0.000000D+00  E= 4.055917D+01
              MO Center= -3.1D-01,  2.9D-01,  1.4D+00, r^2= 1.5D+00
   Bfn.  Coefficient  Atom+Function         Bfn.  Coefficient  Atom+Function  
  ----- ------------  ---------------      ----- ------------  ---------------
    99      2.226449   9 Cl px              102     -1.988247   9 Cl px        
    77      0.939951   8 Cl px               80     -0.839252   8 Cl px        
   100      0.782497   9 Cl py              103     -0.698793   9 Cl py        
   105     -0.676888   9 Cl px               79     -0.606804   8 Cl pz        
    82      0.541810   8 Cl pz              101     -0.473613   9 Cl pz        
 
 Vector  111  Occ=0.000000D+00  E= 4.058165D+01
              MO Center= -6.5D-01,  5.0D-01,  7.4D-01, r^2= 2.4D+00
   Bfn.  Coefficient  Atom+Function         Bfn.  Coefficient  Atom+Function  
  ----- ------------  ---------------      ----- ------------  ---------------
   101      1.937261   9 Cl pz              104     -1.728134   9 Cl pz        
    79     -1.224702   8 Cl pz               82      1.092453   8 Cl pz        
    77     -0.950210   8 Cl px               78      0.854317   8 Cl py        
    80      0.847515   8 Cl px               81     -0.761788   8 Cl py        
   107     -0.598637   9 Cl pz               99      0.435456   9 Cl px        
 
 Vector  112  Occ=0.000000D+00  E= 6.220853D+01
              MO Center=  6.8D-01, -4.4D-01, -4.8D-01, r^2= 6.2D-01
   Bfn.  Coefficient  Atom+Function         Bfn.  Coefficient  Atom+Function  
  ----- ------------  ---------------      ----- ------------  ---------------
     2      2.536815   1 C  s                 3     -1.935652   1 C  s         
     1     -1.499604   1 C  s                 4      1.293870   1 C  s         
    56      1.112741   7 C  s                 5     -1.042971   1 C  s         
    17      1.002442   2 C  s                57     -0.848266   7 C  s         
    18     -0.759247   2 C  s                55     -0.658354   7 C  s         
 
 Vector  113  Occ=0.000000D+00  E= 6.234951D+01
              MO Center= -2.9D-01, -4.0D-01,  8.4D-02, r^2= 4.2D-01
   Bfn.  Coefficient  Atom+Function         Bfn.  Coefficient  Atom+Function  
  ----- ------------  ---------------      ----- ------------  ---------------
    56      2.678902   7 C  s                57     -2.052494   7 C  s         
    55     -1.580226   7 C  s                58      1.416940   7 C  s         
    59     -1.271495   7 C  s                60      1.270135   7 C  s         
     2     -1.240103   1 C  s                 3      0.950288   1 C  s         
     1      0.730988   1 C  s                 6     -0.689141   1 C  s         
 
 Vector  114  Occ=0.000000D+00  E= 6.242116D+01
              MO Center=  1.7D+00,  2.3D-01, -6.0D-01, r^2= 4.6D-01
   Bfn.  Coefficient  Atom+Function         Bfn.  Coefficient  Atom+Function  
  ----- ------------  ---------------      ----- ------------  ---------------
    17      2.770427   2 C  s                18     -2.118188   2 C  s         
    16     -1.635702   2 C  s                19      1.445357   2 C  s         
    20     -1.255961   2 C  s                21      1.173746   2 C  s         
     2     -0.858072   1 C  s                 3      0.659247   1 C  s         
    56     -0.560992   7 C  s                 1      0.504967   1 C  s         
 
 Vector  115  Occ=0.000000D+00  E= 1.175505D+02
              MO Center=  6.7D-01, -1.7D+00, -1.3D+00, r^2= 4.5D-02
   Bfn.  Coefficient  Atom+Function         Bfn.  Coefficient  Atom+Function  
  ----- ------------  ---------------      ----- ------------  ---------------
    38      2.969931   5 O  s                39     -2.274389   5 O  s         
    37     -1.756167   5 O  s                40      1.437179   5 O  s         
    41     -1.087431   5 O  s                42      0.686815   5 O  s         
     6     -0.228331   1 C  s                14      0.207984   1 C  py        
    15      0.150718   1 C  pz               50      0.104720   5 O  py        
 
 Vector  116  Occ=0.000000D+00  E= 1.228295D+02
              MO Center= -1.0D+00,  7.4D-01, -3.6D-02, r^2= 1.9D+00
   Bfn.  Coefficient  Atom+Function         Bfn.  Coefficient  Atom+Function  
  ----- ------------  ---------------      ----- ------------  ---------------
    72      1.933240   8 Cl s                73     -1.467394   8 Cl s         
    71     -1.373640   8 Cl s                94     -1.178081   9 Cl s         
    74      0.989520   8 Cl s                95      0.893939   9 Cl s         
    93      0.837098   9 Cl s                96     -0.602303   9 Cl s         
    75     -0.449241   8 Cl s                76      0.311689   8 Cl s         
 
 Vector  117  Occ=0.000000D+00  E= 1.228730D+02
              MO Center= -4.3D-01,  3.6D-01,  1.2D+00, r^2= 1.9D+00
   Bfn.  Coefficient  Atom+Function         Bfn.  Coefficient  Atom+Function  
  ----- ------------  ---------------      ----- ------------  ---------------
    94      1.933936   9 Cl s                95     -1.470703   9 Cl s         
    93     -1.373808   9 Cl s                72      1.178519   8 Cl s         
    96      0.995919   9 Cl s                73     -0.896486   8 Cl s         
    71     -0.837157   8 Cl s                74      0.607566   8 Cl s         
    97     -0.467625   9 Cl s                98      0.366379   9 Cl s         
 
 Vector  118  Occ=0.000000D+00  E= 8.993792D+02
              MO Center= -1.0D+00,  7.4D-01, -3.7D-02, r^2= 1.9D+00
   Bfn.  Coefficient  Atom+Function         Bfn.  Coefficient  Atom+Function  
  ----- ------------  ---------------      ----- ------------  ---------------
    71      2.000888   8 Cl s                70     -1.488149   8 Cl s         
    93     -1.218138   9 Cl s                72     -1.124679   8 Cl s         
    92      0.905993   9 Cl s                94      0.684680   9 Cl s         
    73      0.598589   8 Cl s                74     -0.386103   8 Cl s         
    95     -0.364313   9 Cl s                96      0.234803   9 Cl s         
 
 Vector  119  Occ=0.000000D+00  E= 8.994278D+02
              MO Center= -4.2D-01,  3.6D-01,  1.2D+00, r^2= 1.9D+00
   Bfn.  Coefficient  Atom+Function         Bfn.  Coefficient  Atom+Function  
  ----- ------------  ---------------      ----- ------------  ---------------
    93      2.001125   9 Cl s                92     -1.488187   9 Cl s         
    71      1.218316   8 Cl s                94     -1.125123   9 Cl s         
    70     -0.906022   8 Cl s                72     -0.685015   8 Cl s         
    95      0.599943   9 Cl s                96     -0.388600   9 Cl s         
    73      0.365359   8 Cl s                74     -0.236832   8 Cl s         
 

 center of mass
 --------------
 x =  -0.12163560 y =   0.03735724 z =   0.06839458

 moments of inertia (a.u.)
 ------------------
        1020.128992211705         206.531155711998          33.334122225182
         206.531155711998        1196.054741480266         -78.062537902273
          33.334122225182         -78.062537902273         839.646952440479
 
     Multipole analysis of the density
     ---------------------------------
 
     L   x y z        total         alpha         beta         nuclear
     -   - - -        -----         -----         ----         -------
     0   0 0 0      1.000000    -32.000000    -32.000000     65.000000
 
     1   1 0 0      2.009659      1.004829      1.004829      0.000000
     1   0 1 0     -1.035017     -0.517509     -0.517509      0.000000
     1   0 0 1     -1.385106     -0.692553     -0.692553     -0.000000
 
     2   2 0 0    -24.942575   -154.440798   -154.440798    283.939021
     2   1 1 0     -2.532050     47.886249     47.886249    -98.304549
     2   1 0 1     -5.318199     13.013567     13.013567    -31.345332
     2   0 2 0    -30.607391   -103.767841   -103.767841    176.928292
     2   0 1 1      3.099580    -20.430861    -20.430861     43.961301
     2   0 0 2    -28.605502   -188.508683   -188.508683    348.411863
 

 Task  times  cpu:        4.4s     wall:        4.7s
 
 
                                NWChem Input Module
                                -------------------
 
 
 Summary of allocated global arrays
-----------------------------------
  No active global arrays



                         GA Statistics for process    0
                         ------------------------------

       create   destroy   get      put      acc     scatter   gather  read&inc
calls:  178      178     1.20e+04 1650     1.00e+04    0        0      397     
number of processes/call 1.70e+01 5.19e+01 1.20e+01 0.00e+00 0.00e+00
bytes total:             4.37e+07 5.05e+06 2.43e+07 0.00e+00 0.00e+00 3.18e+03
bytes remote:            3.82e+07 3.32e+06 2.19e+07 0.00e+00 0.00e+00 0.00e+00
Max memory consumed for GA by this process: 436096 bytes
 
 
 
                                     CITATION
                                     --------
                Please cite the following reference when publishing
                           results obtained with NWChem:
 
          E. Apr, E. J. Bylaska, W. A. de Jong, N. Govind, K. Kowalski,
       T. P. Straatsma, M. Valiev, H. J. J. van Dam, Y. Alexeev, J. Anchell,
       V. Anisimov, F. W. Aquino, R. Atta-Fynn, J. Autschbach, N. P. Bauman,
     J. C. Becca, D. E. Bernholdt, K. Bhaskaran-Nair, S. Bogatko, P. Borowski,
        J. Boschen, J. Brabec, A. Bruner, E. Caut, Y. Chen, G. N. Chuev,
      C. J. Cramer, J. Daily, M. J. O. Deegan, T. H. Dunning Jr., M. Dupuis,
   K. G. Dyall, G. I. Fann, S. A. Fischer, A. Fonari, H. Frchtl, L. Gagliardi,
      J. Garza, N. Gawande, S. Ghosh, K. Glaesemann, A. W. Gtz, J. Hammond,
       V. Helms, E. D. Hermes, K. Hirao, S. Hirata, M. Jacquelin, L. Jensen,
   B. G. Johnson, H. Jnsson, R. A. Kendall, M. Klemm, R. Kobayashi, V. Konkov,
      S. Krishnamoorthy, M. Krishnan, Z. Lin, R. D. Lins, R. J. Littlefield,
      A. J. Logsdail, K. Lopata, W. Ma, A. V. Marenich, J. Martin del Campo,
   D. Mejia-Rodriguez, J. E. Moore, J. M. Mullin, T. Nakajima, D. R. Nascimento,
    J. A. Nichols, P. J. Nichols, J. Nieplocha, A. Otero-de-la-Roza, B. Palmer,
    A. Panyala, T. Pirojsirikul, B. Peng, R. Peverati, J. Pittner, L. Pollack,
   R. M. Richard, P. Sadayappan, G. C. Schatz, W. A. Shelton, D. W. Silverstein,
   D. M. A. Smith, T. A. Soares, D. Song, M. Swart, H. L. Taylor, G. S. Thomas,
            V. Tipparaju, D. G. Truhlar, K. Tsemekhman, T. Van Voorhis,
     . Vzquez-Mayagoitia, P. Verma, O. Villa, A. Vishnu, K. D. Vogiatzis,
        D. Wang, J. H. Weare, M. J. Williamson, T. L. Windus, K. Woliski,
        A. T. Wong, Q. Wu, C. Yang, Q. Yu, M. Zacharias, Z. Zhang, Y. Zhao,
                                and R. J. Harrison
                        "NWChem: Past, present, and future
                         J. Chem. Phys. 152, 184102 (2020)
                               doi:10.1063/5.0004997
 
                                      AUTHORS
                                      -------
     E. Apra, E. J. Bylaska, N. Govind, K. Kowalski, M. Valiev, W. A. de Jong,
      T. P. Straatsma, H. J. J. van Dam, D. Wang, T. L. Windus, N. P. Bauman,
       A. Panyala, J. Hammond, J. Autschbach, K. Bhaskaran-Nair, J. Brabec,
    K. Lopata, S. A. Fischer, S. Krishnamoorthy, M. Jacquelin, W. Ma, M. Klemm,
       O. Villa, Y. Chen, V. Anisimov, F. Aquino, S. Hirata, M. T. Hackler,
           Eric Hermes, L. Jensen, J. E. Moore, J. C. Becca, V. Konjkov,
            D. Mejia-Rodriguez, T. Risthaus, M. Malagoli, A. Marenich,
   A. Otero-de-la-Roza, J. Mullin, P. Nichols, R. Peverati, J. Pittner, Y. Zhao,
        P.-D. Fan, A. Fonari, M. J. Williamson, R. J. Harrison, J. R. Rehr,
      M. Dupuis, D. Silverstein, D. M. A. Smith, J. Nieplocha, V. Tipparaju,
      M. Krishnan, B. E. Van Kuiken, A. Vazquez-Mayagoitia, M. Swart, Q. Wu,
   T. Van Voorhis, A. A. Auer, M. Nooijen, L. D. Crosby, E. Brown, G. Cisneros,
     G. I. Fann, H. Fruchtl, J. Garza, K. Hirao, R. A. Kendall, J. A. Nichols,
       K. Tsemekhman, K. Wolinski, J. Anchell, D. E. Bernholdt, P. Borowski,
       T. Clark, D. Clerc, H. Dachsel, M. J. O. Deegan, K. Dyall, D. Elwood,
      E. Glendening, M. Gutowski, A. C. Hess, J. Jaffe, B. G. Johnson, J. Ju,
        R. Kobayashi, R. Kutteh, Z. Lin, R. Littlefield, X. Long, B. Meng,
      T. Nakajima, S. Niu, L. Pollack, M. Rosing, K. Glaesemann, G. Sandrone,
      M. Stave, H. Taylor, G. Thomas, J. H. van Lenthe, A. T. Wong, Z. Zhang.

 Total times  cpu:        4.4s     wall:        4.7s
