 
             Northwest Computational Chemistry Package (NWChem) 7.0.0
             --------------------------------------------------------
 
 
                    Environmental Molecular Sciences Laboratory
                       Pacific Northwest National Laboratory
                                Richland, WA 99352
 
                              Copyright (c) 1994-2020
                       Pacific Northwest National Laboratory
                            Battelle Memorial Institute
 
             NWChem is an open-source computational chemistry package
                        distributed under the terms of the
                      Educational Community License (ECL) 2.0
             A copy of the license is included with this distribution
                              in the LICENSE.TXT file
 
                                  ACKNOWLEDGMENT
                                  --------------

            This software and its documentation were developed at the
            EMSL at Pacific Northwest National Laboratory, a multiprogram
            national laboratory, operated for the U.S. Department of Energy
            by Battelle under Contract Number DE-AC05-76RL01830. Support
            for this work was provided by the Department of Energy Office
            of Biological and Environmental Research, Office of Basic
            Energy Sciences, and the Office of Advanced Scientific Computing.


                                NWChem Input Module
                                -------------------
 
 
 Summary of "ao basis" -> "" (spherical)
 ------------------------------------------------------------------------------
       Tag                 Description            Shells   Functions and Types
 ---------------- ------------------------------  ------  ---------------------
 *                        ahlrichs_vtz                on all atoms 



 Scaling coordinates for geometry "geometry" by  1.889725989
 (inverse scale =  0.529177249)

 
 
                             Geometry "geometry" -> ""
                             -------------------------
 
 Output coordinates in angstroms (scale by  1.889725989 to convert to a.u.)
 
  No.       Tag          Charge          X              Y              Z
 ---- ---------------- ---------- -------------- -------------- --------------
    1 C                    6.0000    -1.14347450     0.49906817     0.94902169
    2 C                    6.0000     0.02912880     0.06129181     0.13478693
    3 C                    6.0000     1.35978801    -0.07852520     0.75767517
    4 O                    8.0000    -0.08938703    -0.20066945    -1.12777733
    5 Cl                  17.0000    -2.64264148     0.76118068    -0.10941136
    6 H                    1.0000    -0.92905273     1.43480338     1.48402615
    7 H                    1.0000    -1.39350414    -0.27496750     1.69167939
    8 Cl                  17.0000     2.61793278    -0.92226792    -0.26862766
    9 H                    1.0000     1.27651558    -0.60046447     1.72335449
   10 H                    1.0000     1.73871347     0.93725603     0.98112606
   11 H                    1.0000    -1.03018208    -0.04379731    -1.48020675
 
      Atomic Mass 
      ----------- 
 
      C                 12.000000
      O                 15.994910
      Cl                34.968850
      H                  1.007825
 

 Effective nuclear repulsion energy (a.u.)     340.2126219772

            Nuclear Dipole moment (a.u.) 
            ----------------------------
        X                 Y               Z
 ---------------- ---------------- ----------------
     0.0000000000    -0.0000000000     0.0000000000
 
 
            XYZ format geometry
            -------------------
    11
 geometry
 C                    -1.14347450     0.49906817     0.94902169
 C                     0.02912880     0.06129181     0.13478693
 C                     1.35978801    -0.07852520     0.75767517
 O                    -0.08938703    -0.20066945    -1.12777733
 Cl                   -2.64264148     0.76118068    -0.10941136
 H                    -0.92905273     1.43480338     1.48402615
 H                    -1.39350414    -0.27496750     1.69167939
 Cl                    2.61793278    -0.92226792    -0.26862766
 H                     1.27651558    -0.60046447     1.72335449
 H                     1.73871347     0.93725603     0.98112606
 H                    -1.03018208    -0.04379731    -1.48020675
 
 ==============================================================================
                                internuclear distances
 ------------------------------------------------------------------------------
       center one      |      center two      | atomic units |  angstroms
 ------------------------------------------------------------------------------
    2 C                |   1 C                |     2.82173  |     1.49319
    3 C                |   2 C                |     2.78899  |     1.47587
    4 O                |   2 C                |     2.44699  |     1.29489
    5 Cl               |   1 C                |     3.50313  |     1.85378
    6 H                |   1 C                |     2.07681  |     1.09900
    7 H                |   1 C                |     2.08143  |     1.10145
    8 Cl               |   3 C                |     3.45780  |     1.82979
    9 H                |   3 C                |     2.08032  |     1.10086
   10 H                |   3 C                |     2.09182  |     1.10694
   11 H                |   4 O                |     1.92150  |     1.01681
 ------------------------------------------------------------------------------
                         number of included internuclear distances:         10
 ==============================================================================



 ==============================================================================
                                 internuclear angles
 ------------------------------------------------------------------------------
        center 1       |       center 2       |       center 3       |  degrees
 ------------------------------------------------------------------------------
    2 C                |   1 C                |   5 Cl               |   111.42
    2 C                |   1 C                |   6 H                |   111.21
    2 C                |   1 C                |   7 H                |   109.87
    5 Cl               |   1 C                |   6 H                |   108.38
    5 Cl               |   1 C                |   7 H                |   107.50
    6 H                |   1 C                |   7 H                |   108.32
    1 C                |   2 C                |   3 C                |   120.38
    1 C                |   2 C                |   4 O                |   121.27
    3 C                |   2 C                |   4 O                |   118.35
    2 C                |   3 C                |   8 Cl               |   115.27
    2 C                |   3 C                |   9 H                |   110.30
    2 C                |   3 C                |  10 H                |   107.87
    8 Cl               |   3 C                |   9 H                |   108.99
    8 Cl               |   3 C                |  10 H                |   107.52
    9 H                |   3 C                |  10 H                |   106.49
    2 C                |   4 O                |  11 H                |   113.04
 ------------------------------------------------------------------------------
                            number of included internuclear angles:         16
 ==============================================================================



                              Aldehyde and Ketone set
                              -----------------------
 
                                 NWChem DFT Module
                                 -----------------
 
 
                              Aldehyde and Ketone set
 
 
                      Basis "ao basis" -> "ao basis" (spherical)
                      -----
  C (Carbon)
  ----------
            Exponent  Coefficients 
       -------------- ---------------------------------------------------------
  1 S  8.50603840E+03  0.000534
  1 S  1.27573290E+03  0.004125
  1 S  2.90311870E+02  0.021171
  1 S  8.20562000E+01  0.082418
  1 S  2.64796410E+01  0.240129
 
  2 S  9.24145850E+00  1.000000
 
  3 S  3.36435300E+00  1.000000
 
  4 S  8.71741640E-01  1.000000
 
  5 S  3.63523520E-01  1.000000
 
  6 S  1.28731350E-01  1.000000
 
  7 P  3.47094960E+01  0.005330
  7 P  7.95908830E+00  0.035866
  7 P  2.37869720E+00  0.142003
  7 P  8.15400650E-01  0.342031
 
  8 P  2.89537850E-01  1.000000
 
  9 P  1.00847540E-01  1.000000
 
  O (Oxygen)
  ----------
            Exponent  Coefficients 
       -------------- ---------------------------------------------------------
  1 S  1.59026475E+04  0.000515
  1 S  2.38495378E+03  0.003982
  1 S  5.42719572E+02  0.020477
  1 S  1.53404079E+02  0.080262
  1 S  4.95457161E+01  0.237668
 
  2 S  1.73396499E+01  1.000000
 
  3 S  6.33033553E+00  1.000000
 
  4 S  1.69958822E+00  1.000000
 
  5 S  6.89544913E-01  1.000000
 
  6 S  2.39360282E-01  1.000000
 
  7 P  6.32705240E+01  0.006071
  7 P  1.46233123E+01  0.041948
  7 P  4.44895180E+00  0.161569
  7 P  1.52815132E+00  0.356828
 
  8 P  5.29973159E-01  1.000000
 
  9 P  1.75094460E-01  1.000000
 
  Cl (Chlorine)
  -------------
            Exponent  Coefficients 
       -------------- ---------------------------------------------------------
  1 S  1.17805790E+05  0.000242
  1 S  1.76602650E+04  0.001874
  1 S  4.01859730E+03  0.009736
  1 S  1.13622310E+03  0.039495
  1 S  3.68120620E+02  0.127972
 
  2 S  1.30861540E+02  1.000000
 
  3 S  5.04790110E+01  0.428741
  3 S  2.09168050E+01  0.196685
 
  4 S  6.35313880E+00  1.000000
 
  5 S  2.49480140E+00  1.000000
 
  6 S  5.43359480E-01  1.000000
 
  7 S  1.94343660E-01  1.000000
 
  8 P  6.81068790E+02  0.002366
  8 P  1.61113590E+02  0.018941
  8 P  5.13866370E+01  0.087845
  8 P  1.89585120E+01  0.257074
  8 P  3.00351580E+00  0.371524
 
  9 P  7.45652930E+00  1.000000
 
 10 P  1.06093610E+00  1.000000
 
 11 P  3.94520230E-01  1.000000
 
 12 P  1.33232790E-01  1.000000
 
  H (Hydrogen)
  ------------
            Exponent  Coefficients 
       -------------- ---------------------------------------------------------
  1 S  3.40613410E+01  0.006025
  1 S  5.12357460E+00  0.045021
  1 S  1.16466260E+00  0.201897
 
  2 S  3.27230410E-01  1.000000
 
  3 S  1.03072410E-01  1.000000
 


 Summary of "ao basis" -> "ao basis" (spherical)
 ------------------------------------------------------------------------------
       Tag                 Description            Shells   Functions and Types
 ---------------- ------------------------------  ------  ---------------------
 C                        ahlrichs vtz               9       15   6s3p
 O                        ahlrichs vtz               9       15   6s3p
 Cl                       ahlrichs vtz              12       22   7s5p
 H                        ahlrichs vtz               3        3   3s




 Summary of "ao basis" -> "ao basis" (spherical)
 ------------------------------------------------------------------------------
       Tag                 Description            Shells   Functions and Types
 ---------------- ------------------------------  ------  ---------------------
 C                        ahlrichs vtz               9       15   6s3p
 O                        ahlrichs vtz               9       15   6s3p
 Cl                       ahlrichs vtz              12       22   7s5p
 H                        ahlrichs vtz               3        3   3s


  Caching 1-el integrals 
 
            General Information
            -------------------
          SCF calculation type: DFT
          Wavefunction type:  closed shell.
          No. of atoms     :    11
          No. of electrons :    64
           Alpha electrons :    32
            Beta electrons :    32
          Charge           :     1
          Spin multiplicity:     1
          Use of symmetry is: off; symmetry adaption is: off
          Maximum number of iterations: ***
          This is a Direct SCF calculation.
          AO basis - number of functions:   119
                     number of shells:    75
          Convergence on energy requested:  1.00D-08
          Convergence on density requested:  1.00D-07
          Convergence on gradient requested:  1.00D-06
 
              XC Information
              --------------
                        PBE96 Method XC Functional
          PerdewBurkeErnzerhof Exchange Functional  1.000          
            Perdew 1991 LDA Correlation Functional  1.000 local    
           PerdewBurkeErnz. Correlation Functional  1.000 non-local
 
             Grid Information
             ----------------
          Grid used for XC integration:  fine      
          Radial quadrature: Mura-Knowles        
          Angular quadrature: Lebedev. 
          Tag              B.-S. Rad. Rad. Pts. Rad. Cut. Ang. Pts.
          ---              ---------- --------- --------- ---------
          C                   0.70       70          11.0       590
          O                   0.60       70          10.0       590
          Cl                  1.00      123          13.0       770
          H                   0.35       60          12.0       590
          Grid pruning is: on 
          Number of quadrature shells:   826
          Spatial weights used:  Erf1
 
          Convergence Information
          -----------------------
          Convergence aids based upon iterative change in 
          total energy or number of iterations. 
          Levelshifting, if invoked, occurs when the 
          HOMO/LUMO gap drops below (HL_TOL):  1.00D-02
          DIIS, if invoked, will attempt to extrapolate 
          using up to (NFOCK): 10 stored Fock matrices.

                    Damping( 0%)  Levelshifting(0.5)       DIIS
                  --------------- ------------------- ---------------
          dE  on:    start            ASAP                start   
          dE off:    2 iters        *** iters           *** iters 

 
      Screening Tolerance Information
      -------------------------------
          Density screening/tol_rho:  1.00D-12
          AO Gaussian exp screening on grid/accAOfunc:  18
          CD Gaussian exp screening on grid/accCDfunc:  20
          XC Gaussian exp screening on grid/accXCfunc:  20
          Schwarz screening/accCoul:  1.00D-12

      Dispersion Parameters
      ---------------------

           DFT-D3BJ Model   
          s6 scale factor  :        1.000000000000
          s8 scale factor  :        0.787500000000
          a1 parameter     :        0.428900000000
          a2 parameter     :        4.440700000000
              vdW contrib  :       -0.010026732403


 Forcing the number of linearly dependent vectors to be  0
 
      Superposition of Atomic Density Guess
      -------------------------------------
 
 Sum of atomic energies:       -1109.25882515
   Time after variat. SCF:      0.3
   Time prior to 1st pass:      0.3

 Grid_pts file          = ./07_ClCH2COHCH2Cl.gridpts.00
 Record size in doubles =  12289        No. of grid_pts per rec  =   3070
 Max. records in memory =     17        Max. recs in file   =  67550051

 Grid integrated density:      65.000001412041
 Requested integration accuracy:   0.10E-06

           Memory utilization after 1st SCF pass: 
           Heap Space remaining (MW):        0.00                 468
          Stack Space remaining (MW):      288.36           288357420

   convergence    iter        energy       DeltaE   RMS-Dens  Diis-err    time
 ---------------- ----- ----------------- --------- --------- ---------  ------
 d= 0,ls=0.0,diis     1  -1113.2056186865 -1.45D+03  2.33D-02  5.80D+01     0.6
 d= 0,ls=0.0,diis     2  -1111.9916499311  1.21D+00  1.50D-02  5.24D-01     0.9
 d= 0,ls=0.0,diis     3  -1111.8575064466  1.34D-01  7.34D-03  1.85D+00     1.3
 d= 0,ls=0.0,diis     4  -1112.0389924466 -1.81D-01  2.16D-03  1.23D-01     1.7
 d= 0,ls=0.0,diis     5  -1112.0501927652 -1.12D-02  1.23D-03  2.61D-02     2.0
 d= 0,ls=0.0,diis     6  -1112.0531911064 -3.00D-03  2.16D-04  7.48D-04     2.4
 d= 0,ls=0.0,diis     7  -1112.0532783227 -8.72D-05  1.22D-04  6.85D-05     2.8
 d= 0,ls=0.0,diis     8  -1112.0532851895 -6.87D-06  3.60D-05  2.39D-05     3.1
 d= 0,ls=0.0,diis     9  -1112.0532883943 -3.20D-06  5.46D-06  1.41D-07     3.5
 d= 0,ls=0.0,diis    10  -1112.0532884078 -1.35D-08  2.04D-06  6.57D-08     3.9
 d= 0,ls=0.0,diis    11  -1112.0532884166 -8.72D-09  5.29D-07  5.26D-09     4.2
 d= 0,ls=0.0,diis    12  -1112.0532884172 -5.90D-10  1.58D-07  5.44D-10     4.6
 d= 0,ls=0.0,diis    13  -1112.0532884172 -7.03D-11  5.21D-08  1.56D-11     5.0


         Total DFT energy =    -1112.053288417224
      One electron energy =    -2193.682126537412
           Coulomb energy =      823.599396503015
          Exchange energy =      -79.849023241794
       Correlation energy =       -2.324130385809
 Nuclear repulsion energy =      340.212621977179

    Dispersion correction =       -0.010026732403

 Numeric. integr. density =       64.000000086298

     Total iterative time =      4.7s


 
                       DFT Final Molecular Orbital Analysis
                       ------------------------------------
 
 Vector    1  Occ=2.000000D+00  E=-1.008919D+02
              MO Center= -2.6D+00,  7.6D-01, -1.1D-01, r^2= 3.1D-03
   Bfn.  Coefficient  Atom+Function         Bfn.  Coefficient  Atom+Function  
  ----- ------------  ---------------      ----- ------------  ---------------
    63      0.598197   5 Cl s                62      0.326071   5 Cl s         
    61      0.184384   5 Cl s         
 
 Vector    2  Occ=2.000000D+00  E=-1.008556D+02
              MO Center=  2.6D+00, -9.2D-01, -2.7D-01, r^2= 3.1D-03
   Bfn.  Coefficient  Atom+Function         Bfn.  Coefficient  Atom+Function  
  ----- ------------  ---------------      ----- ------------  ---------------
    91      0.598197   8 Cl s                90      0.326071   8 Cl s         
    89      0.184384   8 Cl s         
 
 Vector    3  Occ=2.000000D+00  E=-1.909794D+01
              MO Center= -9.0D-02, -2.0D-01, -1.1D+00, r^2= 1.5D-02
   Bfn.  Coefficient  Atom+Function         Bfn.  Coefficient  Atom+Function  
  ----- ------------  ---------------      ----- ------------  ---------------
    47      0.424649   4 O  s                48      0.366183   4 O  s         
    46      0.299514   4 O  s                49      0.055409   4 O  s         
 
 Vector    4  Occ=2.000000D+00  E=-1.028838D+01
              MO Center=  2.9D-02,  6.1D-02,  1.3D-01, r^2= 2.8D-02
   Bfn.  Coefficient  Atom+Function         Bfn.  Coefficient  Atom+Function  
  ----- ------------  ---------------      ----- ------------  ---------------
    17      0.424308   2 C  s                18      0.359535   2 C  s         
    16      0.308806   2 C  s                19      0.057437   2 C  s         
 
 Vector    5  Occ=2.000000D+00  E=-1.020396D+01
              MO Center= -1.1D+00,  5.0D-01,  9.5D-01, r^2= 2.8D-02
   Bfn.  Coefficient  Atom+Function         Bfn.  Coefficient  Atom+Function  
  ----- ------------  ---------------      ----- ------------  ---------------
     2      0.424339   1 C  s                 3      0.359460   1 C  s         
     1      0.308851   1 C  s                 4      0.057353   1 C  s         
 
 Vector    6  Occ=2.000000D+00  E=-1.018833D+01
              MO Center=  1.4D+00, -7.9D-02,  7.6D-01, r^2= 2.8D-02
   Bfn.  Coefficient  Atom+Function         Bfn.  Coefficient  Atom+Function  
  ----- ------------  ---------------      ----- ------------  ---------------
    32      0.424341   3 C  s                33      0.359428   3 C  s         
    31      0.308852   3 C  s                34      0.057469   3 C  s         
 
 Vector    7  Occ=2.000000D+00  E=-9.395587D+00
              MO Center= -2.6D+00,  7.6D-01, -1.1D-01, r^2= 6.6D-02
   Bfn.  Coefficient  Atom+Function         Bfn.  Coefficient  Atom+Function  
  ----- ------------  ---------------      ----- ------------  ---------------
    65      0.583450   5 Cl s                64      0.522990   5 Cl s         
    63     -0.293198   5 Cl s                62     -0.113718   5 Cl s         
    66      0.059533   5 Cl s                61     -0.054084   5 Cl s         
    67     -0.026137   5 Cl s         
 
 Vector    8  Occ=2.000000D+00  E=-9.359444D+00
              MO Center=  2.6D+00, -9.2D-01, -2.7D-01, r^2= 6.6D-02
   Bfn.  Coefficient  Atom+Function         Bfn.  Coefficient  Atom+Function  
  ----- ------------  ---------------      ----- ------------  ---------------
    93      0.583417   8 Cl s                92      0.522995   8 Cl s         
    91     -0.293198   8 Cl s                90     -0.113717   8 Cl s         
    94      0.059676   8 Cl s                89     -0.054083   8 Cl s         
    95     -0.026704   8 Cl s         
 
 Vector    9  Occ=2.000000D+00  E=-7.223577D+00
              MO Center= -2.6D+00,  7.6D-01, -1.1D-01, r^2= 5.8D-02
   Bfn.  Coefficient  Atom+Function         Bfn.  Coefficient  Atom+Function  
  ----- ------------  ---------------      ----- ------------  ---------------
    68      0.457712   5 Cl px               71      0.345700   5 Cl px        
    70      0.320150   5 Cl pz               73      0.241804   5 Cl pz        
    69     -0.080410   5 Cl py               72     -0.060731   5 Cl py        
    74      0.058194   5 Cl px               76      0.040714   5 Cl pz        
 
 Vector   10  Occ=2.000000D+00  E=-7.209744D+00
              MO Center= -2.6D+00,  7.6D-01, -1.1D-01, r^2= 5.8D-02
   Bfn.  Coefficient  Atom+Function         Bfn.  Coefficient  Atom+Function  
  ----- ------------  ---------------      ----- ------------  ---------------
    70      0.452889   5 Cl pz               73      0.341908   5 Cl pz        
    68     -0.285041   5 Cl px               71     -0.215189   5 Cl px        
    69      0.180491   5 Cl py               72      0.136261   5 Cl py        
    76      0.056657   5 Cl pz               74     -0.035643   5 Cl px        
 
 Vector   11  Occ=2.000000D+00  E=-7.207560D+00
              MO Center= -2.6D+00,  7.6D-01, -1.1D-01, r^2= 5.8D-02
   Bfn.  Coefficient  Atom+Function         Bfn.  Coefficient  Atom+Function  
  ----- ------------  ---------------      ----- ------------  ---------------
    69      0.529109   5 Cl py               72      0.399419   5 Cl py        
    68      0.166949   5 Cl px               71      0.126028   5 Cl px        
    70     -0.105792   5 Cl pz               73     -0.079861   5 Cl pz        
    75      0.065942   5 Cl py        
 
 Vector   12  Occ=2.000000D+00  E=-7.188510D+00
              MO Center=  2.6D+00, -9.2D-01, -2.7D-01, r^2= 5.8D-02
   Bfn.  Coefficient  Atom+Function         Bfn.  Coefficient  Atom+Function  
  ----- ------------  ---------------      ----- ------------  ---------------
    96      0.396458   8 Cl px               98     -0.303215   8 Cl pz        
    99      0.299447   8 Cl px               97     -0.263254   8 Cl py        
   101     -0.229020   8 Cl pz              100     -0.198837   8 Cl py        
   102      0.050479   8 Cl px              104     -0.038613   8 Cl pz        
   103     -0.033518   8 Cl py        
 
 Vector   13  Occ=2.000000D+00  E=-7.171974D+00
              MO Center=  2.6D+00, -9.2D-01, -2.7D-01, r^2= 5.8D-02
   Bfn.  Coefficient  Atom+Function         Bfn.  Coefficient  Atom+Function  
  ----- ------------  ---------------      ----- ------------  ---------------
    97      0.433078   8 Cl py               96      0.352471   8 Cl px        
   100      0.326933   8 Cl py               99      0.266083   8 Cl px        
    98      0.084862   8 Cl pz              101      0.064063   8 Cl pz        
   103      0.054027   8 Cl py              102      0.043981   8 Cl px        
 
 Vector   14  Occ=2.000000D+00  E=-7.171917D+00
              MO Center=  2.6D+00, -9.2D-01, -2.7D-01, r^2= 5.8D-02
   Bfn.  Coefficient  Atom+Function         Bfn.  Coefficient  Atom+Function  
  ----- ------------  ---------------      ----- ------------  ---------------
    98      0.468708   8 Cl pz              101      0.353830   8 Cl pz        
    97     -0.249023   8 Cl py               96      0.193119   8 Cl px        
   100     -0.187989   8 Cl py               99      0.145787   8 Cl px        
   104      0.058487   8 Cl pz              103     -0.031060   8 Cl py        
 
 Vector   15  Occ=2.000000D+00  E=-1.300622D+00
              MO Center= -1.8D-01, -1.1D-01, -8.4D-01, r^2= 5.7D-01
   Bfn.  Coefficient  Atom+Function         Bfn.  Coefficient  Atom+Function  
  ----- ------------  ---------------      ----- ------------  ---------------
    50      0.510278   4 O  s                51      0.253233   4 O  s         
    20      0.200498   2 C  s                48     -0.139671   4 O  s         
    47     -0.116464   4 O  s                24     -0.113111   2 C  pz        
    49      0.110370   4 O  s                54      0.095390   4 O  pz        
    57      0.089795   4 O  pz               18     -0.069148   2 C  s         
 
 Vector   16  Occ=2.000000D+00  E=-1.021077D+00
              MO Center= -8.8D-01,  3.5D-01,  3.8D-01, r^2= 3.0D+00
   Bfn.  Coefficient  Atom+Function         Bfn.  Coefficient  Atom+Function  
  ----- ------------  ---------------      ----- ------------  ---------------
    66      0.334328   5 Cl s                 5      0.328515   1 C  s         
    67      0.258639   5 Cl s                20      0.206315   2 C  s         
    65     -0.205718   5 Cl s                35      0.195596   3 C  s         
    50     -0.153298   4 O  s                64     -0.124980   5 Cl s         
    94      0.121465   8 Cl s                 6      0.109623   1 C  s         
 
 Vector   17  Occ=2.000000D+00  E=-9.962661D-01
              MO Center=  3.9D-01, -4.1D-02,  1.9D-01, r^2= 4.8D+00
   Bfn.  Coefficient  Atom+Function         Bfn.  Coefficient  Atom+Function  
  ----- ------------  ---------------      ----- ------------  ---------------
    35      0.320537   3 C  s                94      0.311324   8 Cl s         
    66     -0.303589   5 Cl s                67     -0.249852   5 Cl s         
    95      0.238374   8 Cl s                93     -0.191414   8 Cl s         
    65      0.187676   5 Cl s                20      0.138625   2 C  s         
     5     -0.127855   1 C  s                92     -0.116172   8 Cl s         
 
 Vector   18  Occ=2.000000D+00  E=-9.270618D-01
              MO Center=  3.7D-01, -1.1D-01,  3.7D-02, r^2= 5.2D+00
   Bfn.  Coefficient  Atom+Function         Bfn.  Coefficient  Atom+Function  
  ----- ------------  ---------------      ----- ------------  ---------------
    94      0.397059   8 Cl s                95      0.314432   8 Cl s         
    66      0.299762   5 Cl s                20     -0.285669   2 C  s         
    67      0.258032   5 Cl s                93     -0.242121   8 Cl s         
    65     -0.183973   5 Cl s                92     -0.147534   8 Cl s         
     5     -0.146427   1 C  s                64     -0.113118   5 Cl s         
 
 Vector   19  Occ=2.000000D+00  E=-8.517934D-01
              MO Center= -3.7D-01,  1.3D-01,  1.4D-01, r^2= 4.3D+00
   Bfn.  Coefficient  Atom+Function         Bfn.  Coefficient  Atom+Function  
  ----- ------------  ---------------      ----- ------------  ---------------
     5      0.302169   1 C  s                66     -0.297158   5 Cl s         
    67     -0.268241   5 Cl s                94      0.253219   8 Cl s         
    95      0.215193   8 Cl s                65      0.180647   5 Cl s         
    93     -0.153564   8 Cl s                22     -0.149844   2 C  px        
    35     -0.148327   3 C  s                52     -0.131736   4 O  px        
 
 Vector   20  Occ=2.000000D+00  E=-8.218286D-01
              MO Center=  5.0D-01, -1.4D-01, -2.6D-01, r^2= 3.0D+00
   Bfn.  Coefficient  Atom+Function         Bfn.  Coefficient  Atom+Function  
  ----- ------------  ---------------      ----- ------------  ---------------
    35      0.307114   3 C  s                54     -0.236876   4 O  pz        
    94     -0.210287   8 Cl s                95     -0.193145   8 Cl s         
    57     -0.185600   4 O  pz               24      0.162418   2 C  pz        
    52     -0.160552   4 O  px               20     -0.157823   2 C  s         
    55     -0.143336   4 O  px               93      0.128592   8 Cl s         
 
 Vector   21  Occ=2.000000D+00  E=-7.184958D-01
              MO Center= -7.9D-01,  3.2D-01,  4.9D-01, r^2= 2.6D+00
   Bfn.  Coefficient  Atom+Function         Bfn.  Coefficient  Atom+Function  
  ----- ------------  ---------------      ----- ------------  ---------------
     6      0.241860   1 C  s                20     -0.224975   2 C  s         
     5      0.211395   1 C  s                 9      0.200559   1 C  pz        
    28      0.194717   2 C  px               25      0.167708   2 C  px        
    52      0.160698   4 O  px               50      0.153688   4 O  s         
    12      0.145515   1 C  pz               22      0.144101   2 C  px        
 
 Vector   22  Occ=2.000000D+00  E=-6.912550D-01
              MO Center= -1.1D-01,  1.5D-01,  3.5D-01, r^2= 2.6D+00
   Bfn.  Coefficient  Atom+Function         Bfn.  Coefficient  Atom+Function  
  ----- ------------  ---------------      ----- ------------  ---------------
    23      0.212799   2 C  py               53      0.198231   4 O  py        
    26      0.191845   2 C  py                8      0.186260   1 C  py        
    56      0.170732   4 O  py               11      0.168328   1 C  py        
    38      0.141550   3 C  py               41      0.128224   3 C  py        
    14      0.079296   1 C  py               59      0.075729   4 O  py        
 
 Vector   23  Occ=2.000000D+00  E=-6.751777D-01
              MO Center=  7.6D-01, -3.7D-02,  3.5D-01, r^2= 3.1D+00
   Bfn.  Coefficient  Atom+Function         Bfn.  Coefficient  Atom+Function  
  ----- ------------  ---------------      ----- ------------  ---------------
    36      0.224261   3 C  s                37      0.199974   3 C  px        
    54      0.183137   4 O  pz               24     -0.172058   2 C  pz        
    22     -0.166876   2 C  px               25     -0.164835   2 C  px        
    35      0.163852   3 C  s                39      0.160327   3 C  pz        
    57      0.152380   4 O  pz               40      0.140977   3 C  px        
 
 Vector   24  Occ=2.000000D+00  E=-6.253156D-01
              MO Center= -5.4D-02,  2.6D-01,  9.4D-01, r^2= 3.4D+00
   Bfn.  Coefficient  Atom+Function         Bfn.  Coefficient  Atom+Function  
  ----- ------------  ---------------      ----- ------------  ---------------
     8      0.235820   1 C  py               11      0.228130   1 C  py        
    38     -0.189795   3 C  py               41     -0.178081   3 C  py        
    87     -0.114886   7 H  s                39      0.114267   3 C  pz        
    84      0.114156   6 H  s                42      0.108111   3 C  pz        
   112      0.107299   9 H  s                83      0.106613   6 H  s         
 
 Vector   25  Occ=2.000000D+00  E=-6.003923D-01
              MO Center= -3.3D-01,  3.8D-02,  1.6D-02, r^2= 4.5D+00
   Bfn.  Coefficient  Atom+Function         Bfn.  Coefficient  Atom+Function  
  ----- ------------  ---------------      ----- ------------  ---------------
    53      0.261519   4 O  py               56      0.230935   4 O  py        
    77     -0.191212   5 Cl px               42      0.157690   3 C  pz        
    39      0.153810   3 C  pz               67      0.141130   5 Cl s         
    12      0.134901   1 C  pz               59      0.130015   4 O  py        
     9      0.113545   1 C  pz               11     -0.104031   1 C  py        
 
 Vector   26  Occ=2.000000D+00  E=-5.971276D-01
              MO Center= -3.8D-01,  2.7D-01,  5.6D-02, r^2= 4.8D+00
   Bfn.  Coefficient  Atom+Function         Bfn.  Coefficient  Atom+Function  
  ----- ------------  ---------------      ----- ------------  ---------------
    53      0.221247   4 O  py               77      0.209026   5 Cl px        
    56      0.191083   4 O  py               41     -0.170209   3 C  py        
    38     -0.168420   3 C  py               67     -0.152068   5 Cl s         
    10     -0.140608   1 C  px                7     -0.132284   1 C  px        
    12     -0.129297   1 C  pz               79      0.129187   5 Cl pz        
 
 Vector   27  Occ=2.000000D+00  E=-5.771345D-01
              MO Center=  2.1D-01, -1.1D-01, -2.9D-01, r^2= 4.1D+00
   Bfn.  Coefficient  Atom+Function         Bfn.  Coefficient  Atom+Function  
  ----- ------------  ---------------      ----- ------------  ---------------
    52      0.240895   4 O  px               55      0.207954   4 O  px        
    28      0.205872   2 C  px                6      0.201297   1 C  s         
    36     -0.201644   3 C  s                12     -0.176729   1 C  pz        
    42      0.172405   3 C  pz                9     -0.164438   1 C  pz        
    51      0.160679   4 O  s                39      0.154887   3 C  pz        
 
 Vector   28  Occ=2.000000D+00  E=-5.630164D-01
              MO Center=  9.5D-01, -3.2D-01, -1.7D-01, r^2= 4.6D+00
   Bfn.  Coefficient  Atom+Function         Bfn.  Coefficient  Atom+Function  
  ----- ------------  ---------------      ----- ------------  ---------------
   105     -0.207151   8 Cl px               40      0.196990   3 C  px        
    95     -0.179907   8 Cl s                52      0.175370   4 O  px        
    37      0.173127   3 C  px              107      0.160510   8 Cl pz        
    55      0.153604   4 O  px               10      0.152539   1 C  px        
   106      0.145216   8 Cl py                7      0.143747   1 C  px        
 
 Vector   29  Occ=2.000000D+00  E=-4.896883D-01
              MO Center= -2.4D+00,  7.0D-01, -8.3D-02, r^2= 1.9D+00
   Bfn.  Coefficient  Atom+Function         Bfn.  Coefficient  Atom+Function  
  ----- ------------  ---------------      ----- ------------  ---------------
    79      0.430206   5 Cl pz               77     -0.278859   5 Cl px        
    82      0.248519   5 Cl pz               28      0.200170   2 C  px        
    36     -0.200290   3 C  s                76      0.197847   5 Cl pz        
    21      0.176561   2 C  s                80     -0.170137   5 Cl px        
    78      0.164421   5 Cl py               70     -0.127296   5 Cl pz        
 
 Vector   30  Occ=2.000000D+00  E=-4.718967D-01
              MO Center= -2.5D+00,  7.2D-01, -2.4D-02, r^2= 1.7D+00
   Bfn.  Coefficient  Atom+Function         Bfn.  Coefficient  Atom+Function  
  ----- ------------  ---------------      ----- ------------  ---------------
    78      0.509977   5 Cl py               81      0.312935   5 Cl py        
    75      0.236736   5 Cl py               77      0.157498   5 Cl px        
    69     -0.151183   5 Cl py               72     -0.121399   5 Cl py        
    85     -0.115809   6 H  s                14      0.115103   1 C  py        
    87      0.107768   7 H  s                84     -0.098510   6 H  s         
 
 Vector   31  Occ=2.000000D+00  E=-4.427182D-01
              MO Center=  2.5D+00, -8.6D-01, -2.2D-01, r^2= 1.7D+00
   Bfn.  Coefficient  Atom+Function         Bfn.  Coefficient  Atom+Function  
  ----- ------------  ---------------      ----- ------------  ---------------
   107      0.394285   8 Cl pz              105      0.369286   8 Cl px        
   110      0.234225   8 Cl pz              108      0.218545   8 Cl px        
    21      0.200959   2 C  s               104      0.182838   8 Cl pz        
   102      0.167485   8 Cl px                6     -0.120496   1 C  s         
    25      0.117043   2 C  px               98     -0.116968   8 Cl pz        
 
 Vector   32  Occ=2.000000D+00  E=-4.387826D-01
              MO Center=  2.5D+00, -8.4D-01, -1.9D-01, r^2= 1.8D+00
   Bfn.  Coefficient  Atom+Function         Bfn.  Coefficient  Atom+Function  
  ----- ------------  ---------------      ----- ------------  ---------------
   106      0.467882   8 Cl py              109      0.287042   8 Cl py        
   107     -0.238228   8 Cl pz              103      0.217712   8 Cl py        
   110     -0.146998   8 Cl pz               97     -0.139019   8 Cl py        
   105      0.128316   8 Cl px              100     -0.111627   8 Cl py        
   104     -0.109880   8 Cl pz              113      0.108975   9 H  s         
 
 Vector   33  Occ=0.000000D+00  E=-3.599138D-01
              MO Center=  7.1D-02,  5.2D-02,  8.8D-02, r^2= 2.2D+00
   Bfn.  Coefficient  Atom+Function         Bfn.  Coefficient  Atom+Function  
  ----- ------------  ---------------      ----- ------------  ---------------
    26      0.439052   2 C  py               23      0.400564   2 C  py        
    29      0.274636   2 C  py               53     -0.259570   4 O  py        
    59     -0.241535   4 O  py               56     -0.224684   4 O  py        
   115     -0.153763  10 H  s                87      0.146433   7 H  s         
    84     -0.138916   6 H  s               112      0.125787   9 H  s         
 
 Vector   34  Occ=0.000000D+00  E=-2.669942D-01
              MO Center= -8.7D-01,  3.1D-01,  2.8D-01, r^2= 5.6D+00
   Bfn.  Coefficient  Atom+Function         Bfn.  Coefficient  Atom+Function  
  ----- ------------  ---------------      ----- ------------  ---------------
    67     -0.501990   5 Cl s                 6      0.463679   1 C  s         
    80     -0.385102   5 Cl px               77     -0.345515   5 Cl px        
     5      0.299052   1 C  s                13     -0.295581   1 C  px        
    95     -0.282351   8 Cl s                51     -0.274870   4 O  s         
    82     -0.270730   5 Cl pz               10     -0.261349   1 C  px        
 
 Vector   35  Occ=0.000000D+00  E=-2.039923D-01
              MO Center=  3.2D-01, -1.2D-01,  6.1D-02, r^2= 6.2D+00
   Bfn.  Coefficient  Atom+Function         Bfn.  Coefficient  Atom+Function  
  ----- ------------  ---------------      ----- ------------  ---------------
     6      0.747629   1 C  s                95      0.486693   8 Cl s         
   119     -0.449663  11 H  s                51      0.435951   4 O  s         
    45      0.388039   3 C  pz               40     -0.313758   3 C  px        
    10     -0.310105   1 C  px               88     -0.310316   7 H  s         
   108     -0.300115   8 Cl px              113     -0.292059   9 H  s         
 
 Vector   36  Occ=0.000000D+00  E=-1.955930D-01
              MO Center= -1.5D-02,  8.4D-02, -1.7D-02, r^2= 6.8D+00
   Bfn.  Coefficient  Atom+Function         Bfn.  Coefficient  Atom+Function  
  ----- ------------  ---------------      ----- ------------  ---------------
    36      1.164633   3 C  s               119     -0.701995  11 H  s         
     6      0.615120   1 C  s                85     -0.586483   6 H  s         
    51      0.553331   4 O  s                88     -0.494561   7 H  s         
   116     -0.493642  10 H  s                15      0.428653   1 C  pz        
   113     -0.397675   9 H  s                21     -0.347836   2 C  s         
 
 Vector   37  Occ=0.000000D+00  E=-1.645217D-01
              MO Center= -4.9D-01,  1.8D-01,  8.6D-02, r^2= 6.6D+00
   Bfn.  Coefficient  Atom+Function         Bfn.  Coefficient  Atom+Function  
  ----- ------------  ---------------      ----- ------------  ---------------
   119      1.012470  11 H  s                 6      0.909527   1 C  s         
    88     -0.799282   7 H  s               116     -0.734448  10 H  s         
    85     -0.710378   6 H  s               113     -0.552808   9 H  s         
    45      0.446139   3 C  pz               15      0.440474   1 C  pz        
    36      0.383402   3 C  s                43      0.368276   3 C  px        
 
 Vector   38  Occ=0.000000D+00  E=-1.213240D-01
              MO Center=  1.7D-01,  4.3D-01,  1.6D+00, r^2= 6.2D+00
   Bfn.  Coefficient  Atom+Function         Bfn.  Coefficient  Atom+Function  
  ----- ------------  ---------------      ----- ------------  ---------------
    36     -1.575665   3 C  s                 6      1.527397   1 C  s         
    85     -1.475590   6 H  s               113      1.449145   9 H  s         
    45     -0.633811   3 C  pz               13      0.583653   1 C  px        
    14      0.505951   1 C  py               29     -0.395952   2 C  py        
   116      0.354799  10 H  s                28      0.308698   2 C  px        
 
 Vector   39  Occ=0.000000D+00  E=-1.171992D-01
              MO Center= -6.6D-03,  3.6D-01,  1.4D+00, r^2= 6.0D+00
   Bfn.  Coefficient  Atom+Function         Bfn.  Coefficient  Atom+Function  
  ----- ------------  ---------------      ----- ------------  ---------------
    88      1.660041   7 H  s               116     -1.458571  10 H  s         
    14      1.112634   1 C  py                6     -0.960021   1 C  s         
    85     -0.937645   6 H  s                44      0.891714   3 C  py        
    36      0.884996   3 C  s               113      0.654241   9 H  s         
    28     -0.622932   2 C  px               29     -0.580781   2 C  py        
 
 Vector   40  Occ=0.000000D+00  E=-9.942675D-02
              MO Center=  3.3D-01,  4.1D-01,  1.4D+00, r^2= 5.2D+00
   Bfn.  Coefficient  Atom+Function         Bfn.  Coefficient  Atom+Function  
  ----- ------------  ---------------      ----- ------------  ---------------
   116      1.403769  10 H  s               113     -1.342973   9 H  s         
    85     -1.249067   6 H  s                88      1.139361   7 H  s         
    21      1.112875   2 C  s                44     -1.080121   3 C  py        
    14      0.986928   1 C  py               36     -0.490046   3 C  s         
    45      0.356113   3 C  pz                6     -0.350233   1 C  s         
 
 Vector   41  Occ=0.000000D+00  E=-8.304535D-02
              MO Center= -2.6D-01,  2.6D-01,  8.9D-01, r^2= 5.0D+00
   Bfn.  Coefficient  Atom+Function         Bfn.  Coefficient  Atom+Function  
  ----- ------------  ---------------      ----- ------------  ---------------
    21      3.591268   2 C  s                 6     -1.136526   1 C  s         
    36     -1.127067   3 C  s                15      1.112881   1 C  pz        
    13     -0.994059   1 C  px               43      0.978791   3 C  px        
    88     -0.619866   7 H  s               113      0.596945   9 H  s         
    20      0.540501   2 C  s                51     -0.449688   4 O  s         
 
 Vector   42  Occ=0.000000D+00  E=-3.219265D-02
              MO Center=  7.5D-01,  1.9D-01,  9.9D-01, r^2= 5.6D+00
   Bfn.  Coefficient  Atom+Function         Bfn.  Coefficient  Atom+Function  
  ----- ------------  ---------------      ----- ------------  ---------------
    28      2.717555   2 C  px               36     -2.247713   3 C  s         
    15     -2.020563   1 C  pz               45      1.956357   3 C  pz        
    43      1.845882   3 C  px               85      1.087527   6 H  s         
    21      1.004925   2 C  s                 6      0.956834   1 C  s         
   113     -0.947242   9 H  s                88      0.913185   7 H  s         
 
 Vector   43  Occ=0.000000D+00  E=-2.716561D-02
              MO Center= -2.9D-01,  1.8D-01,  1.0D+00, r^2= 5.8D+00
   Bfn.  Coefficient  Atom+Function         Bfn.  Coefficient  Atom+Function  
  ----- ------------  ---------------      ----- ------------  ---------------
    15      1.615677   1 C  pz               28     -0.750612   2 C  px        
    45      0.688694   3 C  pz               85     -0.679170   6 H  s         
    14      0.668799   1 C  py                6     -0.647652   1 C  s         
    13     -0.458945   1 C  px               12     -0.454041   1 C  pz        
   119      0.441452  11 H  s                60      0.421954   4 O  pz        
 
 Vector   44  Occ=0.000000D+00  E=-2.510476D-03
              MO Center= -3.3D-01,  2.1D-01,  5.8D-01, r^2= 7.0D+00
   Bfn.  Coefficient  Atom+Function         Bfn.  Coefficient  Atom+Function  
  ----- ------------  ---------------      ----- ------------  ---------------
    30      2.344314   2 C  pz               13     -1.815008   1 C  px        
     6     -1.689948   1 C  s                45     -1.687864   3 C  pz        
    51      1.228291   4 O  s               113      1.229807   9 H  s         
    29      0.813349   2 C  py               36     -0.782156   3 C  s         
    67     -0.746955   5 Cl s                28     -0.628481   2 C  px        
 
 Vector   45  Occ=0.000000D+00  E= 7.399103D-03
              MO Center= -1.6D-01,  2.2D-01,  4.5D-02, r^2= 4.6D+00
   Bfn.  Coefficient  Atom+Function         Bfn.  Coefficient  Atom+Function  
  ----- ------------  ---------------      ----- ------------  ---------------
    29      0.909370   2 C  py               14      0.789669   1 C  py        
    88      0.785864   7 H  s                26     -0.649429   2 C  py        
   116     -0.645723  10 H  s                85     -0.582965   6 H  s         
    30     -0.481436   2 C  pz               15     -0.375009   1 C  pz        
    13      0.331657   1 C  px               44      0.325865   3 C  py        
 
 Vector   46  Occ=0.000000D+00  E= 4.458153D-02
              MO Center=  5.7D-01,  2.0D-01,  6.6D-01, r^2= 7.5D+00
   Bfn.  Coefficient  Atom+Function         Bfn.  Coefficient  Atom+Function  
  ----- ------------  ---------------      ----- ------------  ---------------
    43      1.575574   3 C  px               45     -1.047488   3 C  pz        
    15      1.011835   1 C  pz               13      0.936014   1 C  px        
    95     -0.867186   8 Cl s                67      0.697701   5 Cl s         
    44     -0.678733   3 C  py               40     -0.486289   3 C  px        
    12     -0.427722   1 C  pz               80      0.419245   5 Cl px        
 
 Vector   47  Occ=0.000000D+00  E= 5.210436D-02
              MO Center= -5.1D-02, -2.1D-01,  5.9D-01, r^2= 6.3D+00
   Bfn.  Coefficient  Atom+Function         Bfn.  Coefficient  Atom+Function  
  ----- ------------  ---------------      ----- ------------  ---------------
    44      1.500059   3 C  py               14     -1.210593   1 C  py        
    36      0.926506   3 C  s                13     -0.909571   1 C  px        
    30     -0.847700   2 C  pz               28     -0.665728   2 C  px        
   119     -0.474962  11 H  s                88     -0.424897   7 H  s         
    10      0.406886   1 C  px              112      0.394080   9 H  s         
 
 Vector   48  Occ=0.000000D+00  E= 6.947059D-02
              MO Center=  1.1D-01,  2.4D-01,  2.1D-01, r^2= 6.0D+00
   Bfn.  Coefficient  Atom+Function         Bfn.  Coefficient  Atom+Function  
  ----- ------------  ---------------      ----- ------------  ---------------
    21      1.409124   2 C  s                14      1.207048   1 C  py        
    28     -1.135659   2 C  px                6     -0.986470   1 C  s         
    13     -0.781515   1 C  px               85     -0.762413   6 H  s         
   119     -0.729040  11 H  s                27     -0.716233   2 C  pz        
    45      0.678588   3 C  pz               51     -0.554720   4 O  s         
 
 Vector   49  Occ=0.000000D+00  E= 7.833044D-02
              MO Center=  3.6D-01, -9.2D-03, -1.9D-01, r^2= 6.1D+00
   Bfn.  Coefficient  Atom+Function         Bfn.  Coefficient  Atom+Function  
  ----- ------------  ---------------      ----- ------------  ---------------
     6      2.367210   1 C  s                28      1.858225   2 C  px        
    30     -1.836803   2 C  pz               45      1.769753   3 C  pz        
    15     -1.024740   1 C  pz               21     -0.969575   2 C  s         
    29     -0.973625   2 C  py              118     -0.807011  11 H  s         
    88      0.731533   7 H  s               119      0.648824  11 H  s         
 
 Vector   50  Occ=0.000000D+00  E= 8.624973D-02
              MO Center= -6.9D-01,  6.2D-03, -6.7D-01, r^2= 5.2D+00
   Bfn.  Coefficient  Atom+Function         Bfn.  Coefficient  Atom+Function  
  ----- ------------  ---------------      ----- ------------  ---------------
    28      3.690923   2 C  px               36     -3.351045   3 C  s         
    30      2.866108   2 C  pz              119      1.616442  11 H  s         
    43      1.430301   3 C  px               15     -1.417807   1 C  pz        
    21      0.981001   2 C  s               116     -0.841850  10 H  s         
    14     -0.664281   1 C  py               85      0.588066   6 H  s         
 
 Vector   51  Occ=0.000000D+00  E= 1.195885D-01
              MO Center= -6.3D-01,  2.0D-01,  1.7D-01, r^2= 6.7D+00
   Bfn.  Coefficient  Atom+Function         Bfn.  Coefficient  Atom+Function  
  ----- ------------  ---------------      ----- ------------  ---------------
     6      1.275251   1 C  s                43     -0.822124   3 C  px        
    28      0.800782   2 C  px               30     -0.704484   2 C  pz        
    80     -0.693553   5 Cl px               13     -0.579601   1 C  px        
    25      0.555940   2 C  px               35     -0.522662   3 C  s         
    29     -0.519576   2 C  py                5      0.514551   1 C  s         
 
 Vector   52  Occ=0.000000D+00  E= 1.526288D-01
              MO Center= -7.2D-01,  3.8D-01,  6.2D-02, r^2= 7.8D+00
   Bfn.  Coefficient  Atom+Function         Bfn.  Coefficient  Atom+Function  
  ----- ------------  ---------------      ----- ------------  ---------------
    28      5.149665   2 C  px               36     -2.509842   3 C  s         
    15     -2.191098   1 C  pz               45      1.861003   3 C  pz        
    85      1.386667   6 H  s                29     -1.313415   2 C  py        
    88      1.030443   7 H  s               116     -1.029614  10 H  s         
    44      0.854160   3 C  py              113     -0.854571   9 H  s         
 
 Vector   53  Occ=0.000000D+00  E= 1.611684D-01
              MO Center=  2.9D-01,  8.8D-02,  1.7D-01, r^2= 8.1D+00
   Bfn.  Coefficient  Atom+Function         Bfn.  Coefficient  Atom+Function  
  ----- ------------  ---------------      ----- ------------  ---------------
    14      2.970137   1 C  py               44      2.574298   3 C  py        
    29     -2.198274   2 C  py               28     -1.869786   2 C  px        
    45     -1.757135   3 C  pz               85     -1.486250   6 H  s         
    36      1.455595   3 C  s               113      1.401042   9 H  s         
    30      1.030250   2 C  pz               21     -0.909438   2 C  s         
 
 Vector   54  Occ=0.000000D+00  E= 1.708478D-01
              MO Center=  1.1D-01, -3.1D-01, -5.0D-01, r^2= 1.1D+01
   Bfn.  Coefficient  Atom+Function         Bfn.  Coefficient  Atom+Function  
  ----- ------------  ---------------      ----- ------------  ---------------
     6      2.666855   1 C  s                28      1.797225   2 C  px        
    36      1.752837   3 C  s               113     -1.401060   9 H  s         
    21     -1.342567   2 C  s                14     -1.324676   1 C  py        
    45      1.325907   3 C  pz               44     -1.228066   3 C  py        
    30     -0.869858   2 C  pz               85      0.779509   6 H  s         
 
 Vector   55  Occ=0.000000D+00  E= 1.852008D-01
              MO Center= -1.6D-01, -1.2D-01, -5.0D-01, r^2= 1.1D+01
   Bfn.  Coefficient  Atom+Function         Bfn.  Coefficient  Atom+Function  
  ----- ------------  ---------------      ----- ------------  ---------------
    28      3.854801   2 C  px                6      2.899477   1 C  s         
    36     -2.448907   3 C  s                45      1.505940   3 C  pz        
    29     -1.446794   2 C  py               15     -1.403596   1 C  pz        
    82     -1.035748   5 Cl pz               88      0.828008   7 H  s         
   113     -0.826887   9 H  s               116     -0.763998  10 H  s         
 
 Vector   56  Occ=0.000000D+00  E= 1.925979D-01
              MO Center= -5.0D-01,  7.9D-02, -5.7D-03, r^2= 9.6D+00
   Bfn.  Coefficient  Atom+Function         Bfn.  Coefficient  Atom+Function  
  ----- ------------  ---------------      ----- ------------  ---------------
    36      1.061272   3 C  s                81      0.939091   5 Cl py        
    88      0.810601   7 H  s               110     -0.720104   8 Cl pz        
    87     -0.639666   7 H  s                78     -0.602754   5 Cl py        
    84      0.553885   6 H  s               107      0.450768   8 Cl pz        
    15     -0.422950   1 C  pz               45      0.411703   3 C  pz        
 
 Vector   57  Occ=0.000000D+00  E= 2.014954D-01
              MO Center= -4.2D-01,  4.9D-01,  1.2D+00, r^2= 7.7D+00
   Bfn.  Coefficient  Atom+Function         Bfn.  Coefficient  Atom+Function  
  ----- ------------  ---------------      ----- ------------  ---------------
    14      3.097905   1 C  py               88      2.668194   7 H  s         
    85     -2.463803   6 H  s                44      2.232604   3 C  py        
   116     -2.207435  10 H  s               113      1.966658   9 H  s         
    29     -1.261114   2 C  py               81     -0.894317   5 Cl py        
    13      0.884087   1 C  px               45     -0.763454   3 C  pz        
 
 Vector   58  Occ=0.000000D+00  E= 2.192972D-01
              MO Center=  3.0D-01,  1.3D-01,  1.3D+00, r^2= 7.6D+00
   Bfn.  Coefficient  Atom+Function         Bfn.  Coefficient  Atom+Function  
  ----- ------------  ---------------      ----- ------------  ---------------
    88      2.732174   7 H  s               113     -2.392981   9 H  s         
   116      2.060226  10 H  s                14      2.040758   1 C  py        
    85     -1.981648   6 H  s                44     -1.224890   3 C  py        
    45      1.045014   3 C  pz               28      0.937263   2 C  px        
   115     -0.919450  10 H  s                87     -0.882111   7 H  s         
 
 Vector   59  Occ=0.000000D+00  E= 2.287162D-01
              MO Center=  9.3D-01, -2.4D-02,  5.8D-01, r^2= 8.0D+00
   Bfn.  Coefficient  Atom+Function         Bfn.  Coefficient  Atom+Function  
  ----- ------------  ---------------      ----- ------------  ---------------
    28      2.686931   2 C  px              116     -1.524105  10 H  s         
    85      1.497813   6 H  s                15     -1.221326   1 C  pz        
    36     -1.151924   3 C  s                21      0.930647   2 C  s         
    44      0.929875   3 C  py               88      0.902662   7 H  s         
    29     -0.880236   2 C  py               84     -0.844618   6 H  s         
 
 Vector   60  Occ=0.000000D+00  E= 2.335929D-01
              MO Center=  1.0D+00, -2.4D-01, -7.1D-02, r^2= 9.7D+00
   Bfn.  Coefficient  Atom+Function         Bfn.  Coefficient  Atom+Function  
  ----- ------------  ---------------      ----- ------------  ---------------
   116     -1.937941  10 H  s                44      1.817772   3 C  py        
    28      1.291643   2 C  px              109     -1.155968   8 Cl py        
    14     -0.779858   1 C  py               35     -0.684856   3 C  s         
   106      0.668203   8 Cl py               85      0.593320   6 H  s         
    81      0.561485   5 Cl py              110      0.551003   8 Cl pz        
 
 Vector   61  Occ=0.000000D+00  E= 2.423146D-01
              MO Center= -6.2D-01,  3.2D-01,  6.4D-02, r^2= 9.9D+00
   Bfn.  Coefficient  Atom+Function         Bfn.  Coefficient  Atom+Function  
  ----- ------------  ---------------      ----- ------------  ---------------
    36      1.072106   3 C  s               113     -0.863797   9 H  s         
    21     -0.796160   2 C  s                 6     -0.724496   1 C  s         
    44     -0.699227   3 C  py               81     -0.682118   5 Cl py        
    82     -0.675658   5 Cl pz               85      0.672058   6 H  s         
    35     -0.655555   3 C  s               115      0.570322  10 H  s         
 
 Vector   62  Occ=0.000000D+00  E= 2.460597D-01
              MO Center=  5.6D-01, -3.4D-02,  6.9D-01, r^2= 8.0D+00
   Bfn.  Coefficient  Atom+Function         Bfn.  Coefficient  Atom+Function  
  ----- ------------  ---------------      ----- ------------  ---------------
   113     -1.974103   9 H  s                 6      1.904503   1 C  s         
    21      1.737362   2 C  s                45      1.646596   3 C  pz        
    28      1.329447   2 C  px               85     -1.316776   6 H  s         
    20     -1.166645   2 C  s                35     -1.109858   3 C  s         
     5     -1.017305   1 C  s                36      0.893860   3 C  s         
 
 Vector   63  Occ=0.000000D+00  E= 2.797419D-01
              MO Center= -4.6D-01,  2.3D-01,  7.6D-01, r^2= 7.7D+00
   Bfn.  Coefficient  Atom+Function         Bfn.  Coefficient  Atom+Function  
  ----- ------------  ---------------      ----- ------------  ---------------
    36      2.174747   3 C  s                13      1.624625   1 C  px        
     6     -1.546707   1 C  s                21     -1.499916   2 C  s         
   113     -1.442684   9 H  s                85      1.412324   6 H  s         
    88      1.306652   7 H  s                30     -1.194883   2 C  pz        
    28     -1.148750   2 C  px                5      0.837158   1 C  s         
 
 Vector   64  Occ=0.000000D+00  E= 2.882751D-01
              MO Center=  8.0D-01, -5.5D-02,  4.7D-01, r^2= 6.9D+00
   Bfn.  Coefficient  Atom+Function         Bfn.  Coefficient  Atom+Function  
  ----- ------------  ---------------      ----- ------------  ---------------
    21      5.090308   2 C  s                30      2.818100   2 C  pz        
    43      2.117983   3 C  px               20     -1.727603   2 C  s         
    29      1.450260   2 C  py                6     -1.300526   1 C  s         
    28     -1.161725   2 C  px              116     -1.096124  10 H  s         
    15      1.057878   1 C  pz              108     -0.958343   8 Cl px        
 
 Vector   65  Occ=0.000000D+00  E= 3.037274D-01
              MO Center=  1.3D-01, -2.0D-01, -7.5D-01, r^2= 6.7D+00
   Bfn.  Coefficient  Atom+Function         Bfn.  Coefficient  Atom+Function  
  ----- ------------  ---------------      ----- ------------  ---------------
    29      2.072805   2 C  py               59     -1.671032   4 O  py        
    44     -1.556814   3 C  py               14     -1.521115   1 C  py        
    28      1.454590   2 C  px               36     -1.429604   3 C  s         
     6      0.879498   1 C  s                13     -0.807196   1 C  px        
    45      0.799799   3 C  pz              109      0.797030   8 Cl py        
 
 Vector   66  Occ=0.000000D+00  E= 3.510488D-01
              MO Center= -6.5D-01, -3.7D-02, -1.0D+00, r^2= 6.9D+00
   Bfn.  Coefficient  Atom+Function         Bfn.  Coefficient  Atom+Function  
  ----- ------------  ---------------      ----- ------------  ---------------
    21      4.299374   2 C  s                60     -2.305851   4 O  pz        
   119     -2.146687  11 H  s                28     -1.472821   2 C  px        
    13     -1.240877   1 C  px               82     -1.223834   5 Cl pz        
    36     -0.933767   3 C  s                51     -0.867580   4 O  s         
    14      0.741650   1 C  py                5     -0.711912   1 C  s         
 
 Vector   67  Occ=0.000000D+00  E= 3.825553D-01
              MO Center=  2.2D-01,  1.3D-02,  3.5D-01, r^2= 6.5D+00
   Bfn.  Coefficient  Atom+Function         Bfn.  Coefficient  Atom+Function  
  ----- ------------  ---------------      ----- ------------  ---------------
    21     10.611472   2 C  s                36     -5.576136   3 C  s         
     6     -5.485827   1 C  s                20     -2.343308   2 C  s         
    43      2.326181   3 C  px               30      2.053237   2 C  pz        
    28      1.731418   2 C  px                5      1.612923   1 C  s         
    13     -1.417724   1 C  px               58     -1.096230   4 O  px        
 
 Vector   68  Occ=0.000000D+00  E= 4.669740D-01
              MO Center=  5.7D-01, -1.9D-01, -4.7D-01, r^2= 5.6D+00
   Bfn.  Coefficient  Atom+Function         Bfn.  Coefficient  Atom+Function  
  ----- ------------  ---------------      ----- ------------  ---------------
     6      4.767933   1 C  s                21     -4.278542   2 C  s         
    28      3.699864   2 C  px               36      3.514191   3 C  s         
    58     -3.257362   4 O  px               30     -1.921605   2 C  pz        
    35     -1.774951   3 C  s                15     -1.526046   1 C  pz        
    29     -1.356193   2 C  py              118     -1.264931  11 H  s         
 
 Vector   69  Occ=0.000000D+00  E= 5.756048D-01
              MO Center=  7.9D-02,  1.6D-01,  6.3D-01, r^2= 6.7D+00
   Bfn.  Coefficient  Atom+Function         Bfn.  Coefficient  Atom+Function  
  ----- ------------  ---------------      ----- ------------  ---------------
     6     10.852632   1 C  s                36    -10.537746   3 C  s         
    28      8.910029   2 C  px                5     -2.582266   1 C  s         
    35      2.504652   3 C  s                15     -2.347304   1 C  pz        
    43      2.266243   3 C  px               45      2.022233   3 C  pz        
    29     -1.885343   2 C  py               58     -1.892700   4 O  px        
 
 Vector   70  Occ=0.000000D+00  E= 7.454775D-01
              MO Center= -2.1D+00,  6.0D-01, -2.6D-03, r^2= 4.1D+00
   Bfn.  Coefficient  Atom+Function         Bfn.  Coefficient  Atom+Function  
  ----- ------------  ---------------      ----- ------------  ---------------
    21      3.927027   2 C  s                67      3.898740   5 Cl s         
    36     -3.869297   3 C  s                 6     -2.811488   1 C  s         
    66     -2.744866   5 Cl s                28      2.144312   2 C  px        
    43      1.297062   3 C  px               80      1.087258   5 Cl px        
    58     -0.816454   4 O  px               35      0.801804   3 C  s         
 
 Vector   71  Occ=0.000000D+00  E= 7.783771D-01
              MO Center=  1.9D+00, -5.8D-01, -1.2D-01, r^2= 4.6D+00
   Bfn.  Coefficient  Atom+Function         Bfn.  Coefficient  Atom+Function  
  ----- ------------  ---------------      ----- ------------  ---------------
    95      3.723710   8 Cl s                36     -3.368455   3 C  s         
    94     -2.594614   8 Cl s                21      2.074631   2 C  s         
     6     -1.434632   1 C  s                51      1.396883   4 O  s         
    13     -1.050538   1 C  px              108     -0.892334   8 Cl px        
    30      0.873999   2 C  pz               50     -0.766167   4 O  s         
 
 Vector   72  Occ=0.000000D+00  E= 8.828715D-01
              MO Center=  1.4D-01, -2.2D-01, -8.4D-01, r^2= 3.5D+00
   Bfn.  Coefficient  Atom+Function         Bfn.  Coefficient  Atom+Function  
  ----- ------------  ---------------      ----- ------------  ---------------
    51      6.104086   4 O  s                50     -2.905335   4 O  s         
    21     -2.606747   2 C  s                30      2.612606   2 C  pz        
    60      1.395212   4 O  pz               95     -1.383120   8 Cl s         
    28      1.174506   2 C  px               27      0.933927   2 C  pz        
    43      0.906182   3 C  px              118     -0.868779  11 H  s         
 
 Vector   73  Occ=0.000000D+00  E= 1.033711D+00
              MO Center= -2.7D-02,  1.3D-01,  3.6D-01, r^2= 2.6D+00
   Bfn.  Coefficient  Atom+Function         Bfn.  Coefficient  Atom+Function  
  ----- ------------  ---------------      ----- ------------  ---------------
    27      1.958557   2 C  pz               51      1.069869   4 O  s         
    12      0.941302   1 C  pz               21     -0.936650   2 C  s         
    40      0.814316   3 C  px                6     -0.805346   1 C  s         
    24     -0.792941   2 C  pz               42      0.728314   3 C  pz        
     9     -0.683961   1 C  pz               60      0.621293   4 O  pz        
 
 Vector   74  Occ=0.000000D+00  E= 1.074223D+00
              MO Center= -1.4D-02,  7.0D-02,  2.4D-01, r^2= 1.9D+00
   Bfn.  Coefficient  Atom+Function         Bfn.  Coefficient  Atom+Function  
  ----- ------------  ---------------      ----- ------------  ---------------
    26      1.584426   2 C  py               23     -1.126867   2 C  py        
    29     -0.746252   2 C  py               14     -0.559961   1 C  py        
    11      0.501637   1 C  py               85      0.442018   6 H  s         
    88     -0.434699   7 H  s                 8     -0.398755   1 C  py        
    44     -0.372837   3 C  py              116      0.365777  10 H  s         
 
 Vector   75  Occ=0.000000D+00  E= 1.145757D+00
              MO Center=  5.1D-01,  1.5D-02,  4.1D-01, r^2= 3.2D+00
   Bfn.  Coefficient  Atom+Function         Bfn.  Coefficient  Atom+Function  
  ----- ------------  ---------------      ----- ------------  ---------------
    36     -2.450398   3 C  s                25      2.404733   2 C  px        
     6      1.895538   1 C  s                40      1.614087   3 C  px        
    95      1.333605   8 Cl s                10      1.087036   1 C  px        
    43     -0.891442   3 C  px               94     -0.837801   8 Cl s         
    22     -0.824110   2 C  px               58     -0.753877   4 O  px        
 
 Vector   76  Occ=0.000000D+00  E= 1.168828D+00
              MO Center= -3.9D-01,  3.3D-01,  8.7D-01, r^2= 4.0D+00
   Bfn.  Coefficient  Atom+Function         Bfn.  Coefficient  Atom+Function  
  ----- ------------  ---------------      ----- ------------  ---------------
    10      1.932412   1 C  px                6      1.667664   1 C  s         
    40     -1.157848   3 C  px               30     -1.131714   2 C  pz        
    20     -1.123518   2 C  s                 7     -1.000569   1 C  px        
    67     -0.892406   5 Cl s                13     -0.882288   1 C  px        
    51     -0.748950   4 O  s                37      0.651675   3 C  px        
 
 Vector   77  Occ=0.000000D+00  E= 1.210469D+00
              MO Center=  6.3D-02,  1.6D-01,  7.4D-01, r^2= 3.5D+00
   Bfn.  Coefficient  Atom+Function         Bfn.  Coefficient  Atom+Function  
  ----- ------------  ---------------      ----- ------------  ---------------
    14     -1.806070   1 C  py               11      1.698929   1 C  py        
    41     -1.588137   3 C  py               44      1.539865   3 C  py        
    88     -1.219029   7 H  s                85      1.207447   6 H  s         
   116     -1.186215  10 H  s               113      0.970012   9 H  s         
     8     -0.900023   1 C  py               38      0.883866   3 C  py        
 
 Vector   78  Occ=0.000000D+00  E= 1.239776D+00
              MO Center=  1.3D-01,  2.1D-01,  8.2D-01, r^2= 3.8D+00
   Bfn.  Coefficient  Atom+Function         Bfn.  Coefficient  Atom+Function  
  ----- ------------  ---------------      ----- ------------  ---------------
    12      1.771755   1 C  pz               42     -1.578945   3 C  pz        
    15     -1.162817   1 C  pz               45      1.089437   3 C  pz        
     9     -0.914436   1 C  pz               36      0.870245   3 C  s         
    39      0.839661   3 C  pz               40     -0.777444   3 C  px        
    88      0.754904   7 H  s                25     -0.721397   2 C  px        
 
 Vector   79  Occ=0.000000D+00  E= 1.296371D+00
              MO Center=  1.2D-01,  1.4D-01,  7.1D-01, r^2= 3.6D+00
   Bfn.  Coefficient  Atom+Function         Bfn.  Coefficient  Atom+Function  
  ----- ------------  ---------------      ----- ------------  ---------------
    14      2.214059   1 C  py               44      2.068059   3 C  py        
    11     -1.712027   1 C  py               41     -1.679035   3 C  py        
    29     -1.543127   2 C  py               85     -1.422689   6 H  s         
    88      1.347232   7 H  s               116     -1.343580  10 H  s         
   113      1.320003   9 H  s                26      1.067370   2 C  py        
 
 Vector   80  Occ=0.000000D+00  E= 1.370398D+00
              MO Center=  1.3D-01,  1.6D-01,  5.6D-01, r^2= 3.1D+00
   Bfn.  Coefficient  Atom+Function         Bfn.  Coefficient  Atom+Function  
  ----- ------------  ---------------      ----- ------------  ---------------
    27      2.479864   2 C  pz               30     -1.664444   2 C  pz        
    42     -1.402172   3 C  pz               45      1.126943   3 C  pz        
    12     -1.105879   1 C  pz              113     -0.901408   9 H  s         
    20     -0.891215   2 C  s                24     -0.891225   2 C  pz        
    15      0.865090   1 C  pz              112      0.824574   9 H  s         
 
 Vector   81  Occ=0.000000D+00  E= 1.483460D+00
              MO Center=  1.6D-01,  9.5D-02,  3.8D-01, r^2= 2.8D+00
   Bfn.  Coefficient  Atom+Function         Bfn.  Coefficient  Atom+Function  
  ----- ------------  ---------------      ----- ------------  ---------------
    28      2.951933   2 C  px               25     -1.870547   2 C  px        
    36     -1.601982   3 C  s                 6      1.419840   1 C  s         
     5     -1.012092   1 C  s                45      1.003940   3 C  pz        
    22      0.950675   2 C  px               35      0.865620   3 C  s         
    40      0.856277   3 C  px               15     -0.844778   1 C  pz        
 
 Vector   82  Occ=0.000000D+00  E= 1.779144D+00
              MO Center= -1.1D+00,  2.2D-02, -1.3D+00, r^2= 1.8D+00
   Bfn.  Coefficient  Atom+Function         Bfn.  Coefficient  Atom+Function  
  ----- ------------  ---------------      ----- ------------  ---------------
   118      2.193748  11 H  s               117     -1.232432  11 H  s         
   119     -1.063258  11 H  s                55      0.794172   4 O  px        
    52     -0.539151   4 O  px                6      0.531363   1 C  s         
    20      0.532885   2 C  s                30     -0.502274   2 C  pz        
    21     -0.483055   2 C  s                15     -0.476009   1 C  pz        
 
 Vector   83  Occ=0.000000D+00  E= 1.875986D+00
              MO Center= -9.7D-02,  3.5D-01,  1.2D+00, r^2= 4.0D+00
   Bfn.  Coefficient  Atom+Function         Bfn.  Coefficient  Atom+Function  
  ----- ------------  ---------------      ----- ------------  ---------------
     5      2.365036   1 C  s                35      1.986021   3 C  s         
     4     -1.833227   1 C  s                20     -1.520983   2 C  s         
    34     -1.494270   3 C  s                21      1.383454   2 C  s         
     6     -1.297906   1 C  s                36     -1.199632   3 C  s         
    87     -1.069263   7 H  s                84     -0.969568   6 H  s         
 
 Vector   84  Occ=0.000000D+00  E= 1.942823D+00
              MO Center=  3.7D-01,  2.9D-01,  1.2D+00, r^2= 3.8D+00
   Bfn.  Coefficient  Atom+Function         Bfn.  Coefficient  Atom+Function  
  ----- ------------  ---------------      ----- ------------  ---------------
    35      2.321949   3 C  s                 5     -1.935807   1 C  s         
    34     -1.907918   3 C  s                 4      1.605636   1 C  s         
   112     -1.181881   9 H  s               115     -1.141950  10 H  s         
    28     -1.108403   2 C  px               84      1.010730   6 H  s         
   113      0.919698   9 H  s                87      0.894208   7 H  s         
 
 Vector   85  Occ=0.000000D+00  E= 2.021405D+00
              MO Center= -1.1D+00,  5.1D-01,  9.3D-01, r^2= 5.2D+00
   Bfn.  Coefficient  Atom+Function         Bfn.  Coefficient  Atom+Function  
  ----- ------------  ---------------      ----- ------------  ---------------
    87      1.174925   7 H  s                78     -1.132651   5 Cl py        
    84     -1.130941   6 H  s                75      1.076390   5 Cl py        
    86     -0.754937   7 H  s                83      0.729894   6 H  s         
    88     -0.723690   7 H  s                85      0.717340   6 H  s         
   112     -0.699658   9 H  s               115      0.682292  10 H  s         
 
 Vector   86  Occ=0.000000D+00  E= 2.051907D+00
              MO Center=  9.2D-01, -4.1D-02,  5.6D-01, r^2= 6.7D+00
   Bfn.  Coefficient  Atom+Function         Bfn.  Coefficient  Atom+Function  
  ----- ------------  ---------------      ----- ------------  ---------------
   112      1.157217   9 H  s               115     -1.108607  10 H  s         
   106     -1.024094   8 Cl py              103      0.975691   8 Cl py        
    78     -0.821678   5 Cl py               75      0.775996   5 Cl py        
   111     -0.749104   9 H  s               114      0.715500  10 H  s         
   116      0.535367  10 H  s               113     -0.519821   9 H  s         
 
 Vector   87  Occ=0.000000D+00  E= 2.087734D+00
              MO Center= -1.8D-01,  5.8D-02,  7.2D-02, r^2= 6.2D+00
   Bfn.  Coefficient  Atom+Function         Bfn.  Coefficient  Atom+Function  
  ----- ------------  ---------------      ----- ------------  ---------------
    20      2.807863   2 C  s                21     -2.745016   2 C  s         
    19     -2.170797   2 C  s                77     -1.018608   5 Cl px        
   105      0.960847   8 Cl px               74      0.942271   5 Cl px        
   102     -0.898119   8 Cl px               30     -0.793502   2 C  pz        
    34     -0.698587   3 C  s                35      0.695173   3 C  s         
 
 Vector   88  Occ=0.000000D+00  E= 2.116430D+00
              MO Center= -1.3D+00,  4.9D-01,  5.1D-01, r^2= 5.0D+00
   Bfn.  Coefficient  Atom+Function         Bfn.  Coefficient  Atom+Function  
  ----- ------------  ---------------      ----- ------------  ---------------
    78     -1.263330   5 Cl py               75      1.159071   5 Cl py        
    84      1.092044   6 H  s                87     -0.979337   7 H  s         
    14     -0.786012   1 C  py               83     -0.769163   6 H  s         
    86      0.733048   7 H  s                81      0.690782   5 Cl py        
   107     -0.555400   8 Cl pz              104      0.507952   8 Cl pz        
 
 Vector   89  Occ=0.000000D+00  E= 2.126887D+00
              MO Center= -2.5D-01,  1.5D-02, -1.7D-01, r^2= 8.8D+00
   Bfn.  Coefficient  Atom+Function         Bfn.  Coefficient  Atom+Function  
  ----- ------------  ---------------      ----- ------------  ---------------
    77      1.313665   5 Cl px              107      1.215342   8 Cl pz        
    74     -1.151126   5 Cl px              104     -1.119905   8 Cl pz        
    21      0.914428   2 C  s                79      0.887131   5 Cl pz        
    76     -0.770117   5 Cl pz                5     -0.574780   1 C  s         
     6     -0.572242   1 C  s               110     -0.567908   8 Cl pz        
 
 Vector   90  Occ=0.000000D+00  E= 2.133393D+00
              MO Center=  7.4D-01, -3.4D-01, -1.9D-01, r^2= 7.9D+00
   Bfn.  Coefficient  Atom+Function         Bfn.  Coefficient  Atom+Function  
  ----- ------------  ---------------      ----- ------------  ---------------
    79      1.155006   5 Cl pz              106     -1.118074   8 Cl py        
    76     -1.027015   5 Cl pz              103      1.023584   8 Cl py        
   107     -1.022006   8 Cl pz              104      0.924935   8 Cl pz        
    36      0.750464   3 C  s                43     -0.743408   3 C  px        
    28     -0.694606   2 C  px               20      0.635238   2 C  s         
 
 Vector   91  Occ=0.000000D+00  E= 2.145631D+00
              MO Center=  3.5D-01, -2.5D-02,  1.1D-01, r^2= 7.5D+00
   Bfn.  Coefficient  Atom+Function         Bfn.  Coefficient  Atom+Function  
  ----- ------------  ---------------      ----- ------------  ---------------
    79      1.157669   5 Cl pz               76     -1.014377   5 Cl pz        
   106      0.952567   8 Cl py              103     -0.878966   8 Cl py        
   115     -0.843145  10 H  s               112      0.760860   9 H  s         
    44      0.624013   3 C  py               21      0.602623   2 C  s         
   107     -0.601588   8 Cl pz              111     -0.589379   9 H  s         
 
 Vector   92  Occ=0.000000D+00  E= 2.155648D+00
              MO Center=  1.0D+00, -4.1D-01, -2.1D-01, r^2= 7.8D+00
   Bfn.  Coefficient  Atom+Function         Bfn.  Coefficient  Atom+Function  
  ----- ------------  ---------------      ----- ------------  ---------------
   105     -1.376194   8 Cl px               21      1.353791   2 C  s         
   102      1.209837   8 Cl px              107      0.949749   8 Cl pz        
   104     -0.835674   8 Cl pz               79      0.819848   5 Cl pz        
    36     -0.800069   3 C  s                76     -0.731942   5 Cl pz        
    77     -0.721466   5 Cl px              106      0.687142   8 Cl py        
 
 Vector   93  Occ=0.000000D+00  E= 2.197259D+00
              MO Center=  1.3D-01, -1.2D-02,  6.8D-02, r^2= 4.8D+00
   Bfn.  Coefficient  Atom+Function         Bfn.  Coefficient  Atom+Function  
  ----- ------------  ---------------      ----- ------------  ---------------
    20      4.507677   2 C  s                21     -4.176827   2 C  s         
    19     -3.163755   2 C  s                30     -0.974653   2 C  pz        
   105     -0.968091   8 Cl px              102      0.833132   8 Cl px        
    77      0.767077   5 Cl px               43     -0.745224   3 C  px        
    13      0.676647   1 C  px               74     -0.662703   5 Cl px        
 
 Vector   94  Occ=0.000000D+00  E= 2.262521D+00
              MO Center=  1.8D-02, -1.5D-01, -7.8D-01, r^2= 2.6D+00
   Bfn.  Coefficient  Atom+Function         Bfn.  Coefficient  Atom+Function  
  ----- ------------  ---------------      ----- ------------  ---------------
    56      1.552062   4 O  py               29      1.230672   2 C  py        
    59     -1.046315   4 O  py               53     -1.029383   4 O  py        
    14     -0.930725   1 C  py               44     -0.840331   3 C  py        
   106     -0.492457   8 Cl py               26     -0.430293   2 C  py        
   103      0.417706   8 Cl py              112     -0.411757   9 H  s         
 
 Vector   95  Occ=0.000000D+00  E= 2.362955D+00
              MO Center=  1.0D-01, -1.3D-01, -7.0D-01, r^2= 2.6D+00
   Bfn.  Coefficient  Atom+Function         Bfn.  Coefficient  Atom+Function  
  ----- ------------  ---------------      ----- ------------  ---------------
    36      2.681257   3 C  s                 6     -1.780519   1 C  s         
    35     -1.776002   3 C  s                57     -1.376996   4 O  pz        
    34      1.245013   3 C  s                 5      0.965618   1 C  s         
    54      0.889085   4 O  pz               60      0.716449   4 O  pz        
    55      0.652441   4 O  px                4     -0.642855   1 C  s         
 
 Vector   96  Occ=0.000000D+00  E= 2.481489D+00
              MO Center= -5.4D-01,  3.7D-01,  1.1D+00, r^2= 2.9D+00
   Bfn.  Coefficient  Atom+Function         Bfn.  Coefficient  Atom+Function  
  ----- ------------  ---------------      ----- ------------  ---------------
     6      6.495948   1 C  s                21     -4.661312   2 C  s         
     5     -4.407401   1 C  s                 4      2.933462   1 C  s         
    35     -2.066761   3 C  s                20      2.023234   2 C  s         
[...]
 Vector   99  Occ=0.000000D+00  E= 4.342343D+00
              MO Center= -9.0D-02, -1.9D-01, -1.1D+00, r^2= 8.7D-01
   Bfn.  Coefficient  Atom+Function         Bfn.  Coefficient  Atom+Function  
  ----- ------------  ---------------      ----- ------------  ---------------
    50      5.058127   4 O  s                51     -3.997121   4 O  s         
    49     -3.907087   4 O  s                30     -1.447169   2 C  pz        
    21      1.129372   2 C  s                48      0.815865   4 O  s         
    60     -0.609676   4 O  pz              118      0.610091  11 H  s         
    28     -0.578405   2 C  px               36      0.575338   3 C  s         
 
 Vector  100  Occ=0.000000D+00  E= 8.795072D+00
              MO Center= -2.4D+00,  6.9D-01, -1.0D-01, r^2= 1.6D+00
   Bfn.  Coefficient  Atom+Function         Bfn.  Coefficient  Atom+Function  
  ----- ------------  ---------------      ----- ------------  ---------------
    65      3.168400   5 Cl s                64     -2.637399   5 Cl s         
    66     -2.052430   5 Cl s                67      1.512043   5 Cl s         
    21      0.840419   2 C  s                 6     -0.793456   1 C  s         
    36     -0.674932   3 C  s                93      0.653524   8 Cl s         
    92     -0.545444   8 Cl s                63      0.449810   5 Cl s         
 
 Vector  101  Occ=0.000000D+00  E= 8.842533D+00
              MO Center=  2.4D+00, -8.4D-01, -2.4D-01, r^2= 1.6D+00
   Bfn.  Coefficient  Atom+Function         Bfn.  Coefficient  Atom+Function  
  ----- ------------  ---------------      ----- ------------  ---------------
    93      3.173877   8 Cl s                92     -2.639301   8 Cl s         
    94     -2.069001   8 Cl s                95      1.561623   8 Cl s         
    36     -0.689664   3 C  s                65     -0.663134   5 Cl s         
    64      0.549870   5 Cl s                21      0.454834   2 C  s         
    91      0.449911   8 Cl s                66      0.438632   5 Cl s         
 
 Vector  102  Occ=0.000000D+00  E= 1.126358D+01
              MO Center=  8.4D-02,  1.0D-01,  3.7D-01, r^2= 1.0D+00
   Bfn.  Coefficient  Atom+Function         Bfn.  Coefficient  Atom+Function  
  ----- ------------  ---------------      ----- ------------  ---------------
    19     -2.805786   2 C  s                18      2.730036   2 C  s         
    20      2.387737   2 C  s                21     -1.478477   2 C  s         
    17     -1.427019   2 C  s                33      1.335550   3 C  s         
    34     -1.332879   3 C  s                 3      1.243691   1 C  s         
     4     -1.237203   1 C  s                35      1.032310   3 C  s         
 
 Vector  103  Occ=0.000000D+00  E= 1.141890D+01
              MO Center= -7.9D-01,  3.8D-01,  7.6D-01, r^2= 9.2D-01
   Bfn.  Coefficient  Atom+Function         Bfn.  Coefficient  Atom+Function  
  ----- ------------  ---------------      ----- ------------  ---------------
     4     -2.978976   1 C  s                 3      2.816563   1 C  s         
     5      2.779995   1 C  s                 6     -2.745314   1 C  s         
    21      2.012429   2 C  s                19      1.733395   2 C  s         
    20     -1.740124   2 C  s                18     -1.594112   2 C  s         
     2     -1.469749   1 C  s                17      0.830432   2 C  s         
 
 Vector  104  Occ=0.000000D+00  E= 1.145675D+01
              MO Center=  9.6D-01,  2.1D-03,  7.4D-01, r^2= 1.2D+00
   Bfn.  Coefficient  Atom+Function         Bfn.  Coefficient  Atom+Function  
  ----- ------------  ---------------      ----- ------------  ---------------
    34     -3.138691   3 C  s                36     -3.124717   3 C  s         
    35      2.973782   3 C  s                33      2.951814   3 C  s         
    32     -1.537308   3 C  s                 6      1.364269   1 C  s         
     4      1.240600   1 C  s                28      1.232647   2 C  px        
     5     -1.186534   1 C  s                 3     -1.167967   1 C  s         
 
 Vector  105  Occ=0.000000D+00  E= 2.162079D+01
              MO Center= -8.8D-02, -2.0D-01, -1.1D+00, r^2= 2.0D-01
   Bfn.  Coefficient  Atom+Function         Bfn.  Coefficient  Atom+Function  
  ----- ------------  ---------------      ----- ------------  ---------------
    48      3.325863   4 O  s                49     -3.232674   4 O  s         
    50      2.604359   4 O  s                47     -1.742427   4 O  s         
    51     -1.672339   4 O  s                30     -0.603983   2 C  pz        
    21      0.442971   2 C  s                60     -0.258574   4 O  pz        
    36      0.246076   3 C  s                28     -0.240800   2 C  px        
 
 Vector  106  Occ=0.000000D+00  E= 4.053271D+01
              MO Center= -2.6D+00,  7.6D-01, -1.1D-01, r^2= 8.1D-02
   Bfn.  Coefficient  Atom+Function         Bfn.  Coefficient  Atom+Function  
  ----- ------------  ---------------      ----- ------------  ---------------
    69      2.493293   5 Cl py               72     -2.227524   5 Cl py        
    68      0.763362   5 Cl px               75     -0.752634   5 Cl py        
    71     -0.682002   5 Cl px               70     -0.503526   5 Cl pz        
    73      0.449848   5 Cl pz               78      0.336372   5 Cl py        
    74     -0.230377   5 Cl px               76      0.152026   5 Cl pz        
 
 Vector  107  Occ=0.000000D+00  E= 4.054477D+01
              MO Center= -2.6D+00,  7.6D-01, -1.1D-01, r^2= 1.0D-01
   Bfn.  Coefficient  Atom+Function         Bfn.  Coefficient  Atom+Function  
  ----- ------------  ---------------      ----- ------------  ---------------
    68      2.270356   5 Cl px               71     -2.027083   5 Cl px        
    70     -1.039912   5 Cl pz               73      0.928930   5 Cl pz        
    69     -0.905208   5 Cl py               72      0.808299   5 Cl py        
    74     -0.692026   5 Cl px               77      0.319863   5 Cl px        
    76      0.314865   5 Cl pz               75      0.275508   5 Cl py        
 
 Vector  108  Occ=0.000000D+00  E= 4.055214D+01
              MO Center= -2.6D+00,  7.6D-01, -1.1D-01, r^2= 1.7D-01
   Bfn.  Coefficient  Atom+Function         Bfn.  Coefficient  Atom+Function  
  ----- ------------  ---------------      ----- ------------  ---------------
    70      2.387939   5 Cl pz               73     -2.131556   5 Cl pz        
    68      1.150987   5 Cl px               71     -1.026957   5 Cl px        
    76     -0.730774   5 Cl pz               74     -0.354622   5 Cl px        
    79      0.343870   5 Cl pz               77      0.170008   5 Cl px        
     6     -0.153741   1 C  s                96      0.144864   8 Cl px        
 
 Vector  109  Occ=0.000000D+00  E= 4.056895D+01
              MO Center=  2.6D+00, -9.2D-01, -2.7D-01, r^2= 8.1D-02
   Bfn.  Coefficient  Atom+Function         Bfn.  Coefficient  Atom+Function  
  ----- ------------  ---------------      ----- ------------  ---------------
    97      2.371219   8 Cl py              100     -2.118411   8 Cl py        
    98     -0.876518   8 Cl pz               96      0.813575   8 Cl px        
   101      0.783090   8 Cl pz               99     -0.726861   8 Cl px        
   103     -0.716063   8 Cl py              106      0.320548   8 Cl py        
   104      0.264575   8 Cl pz              102     -0.245535   8 Cl px        
 
 Vector  110  Occ=0.000000D+00  E= 4.057606D+01
              MO Center=  2.6D+00, -9.2D-01, -2.7D-01, r^2= 1.2D-01
   Bfn.  Coefficient  Atom+Function         Bfn.  Coefficient  Atom+Function  
  ----- ------------  ---------------      ----- ------------  ---------------
    98      2.130356   8 Cl pz              101     -1.902790   8 Cl pz        
    96      1.563992   8 Cl px               99     -1.396995   8 Cl px        
   104     -0.645756   8 Cl pz              102     -0.473712   8 Cl px        
   107      0.293797   8 Cl pz               97      0.250627   8 Cl py        
   100     -0.223827   8 Cl py              105      0.214647   8 Cl px        
 
 Vector  111  Occ=0.000000D+00  E= 4.058474D+01
              MO Center=  2.6D+00, -9.2D-01, -2.7D-01, r^2= 1.5D-01
   Bfn.  Coefficient  Atom+Function         Bfn.  Coefficient  Atom+Function  
  ----- ------------  ---------------      ----- ------------  ---------------
    96      1.982083   8 Cl px               99     -1.769139   8 Cl px        
    98     -1.323337   8 Cl pz              101      1.181095   8 Cl pz        
    97     -1.169859   8 Cl py              100      1.044125   8 Cl py        
   102     -0.607082   8 Cl px              104      0.405648   8 Cl pz        
   103      0.358525   8 Cl py              105      0.285012   8 Cl px        
 
 Vector  112  Occ=0.000000D+00  E= 6.219478D+01
              MO Center=  7.8D-02,  1.1D-01,  3.7D-01, r^2= 7.5D-01
   Bfn.  Coefficient  Atom+Function         Bfn.  Coefficient  Atom+Function  
  ----- ------------  ---------------      ----- ------------  ---------------
    17      2.411397   2 C  s                18     -1.839047   2 C  s         
    16     -1.425847   2 C  s                19      1.226225   2 C  s         
    32      1.226622   3 C  s                 2      1.161743   1 C  s         
    20     -0.987062   2 C  s                33     -0.930889   3 C  s         
     3     -0.882278   1 C  s                31     -0.727037   3 C  s         
 
 Vector  113  Occ=0.000000D+00  E= 6.235987D+01
              MO Center= -8.4D-01,  3.9D-01,  7.6D-01, r^2= 5.4D-01
   Bfn.  Coefficient  Atom+Function         Bfn.  Coefficient  Atom+Function  
  ----- ------------  ---------------      ----- ------------  ---------------
     2      2.569246   1 C  s                 3     -1.965446   1 C  s         
     1     -1.516477   1 C  s                17     -1.418970   2 C  s         
     4      1.348950   1 C  s                 5     -1.192508   1 C  s         
     6      1.175474   1 C  s                18      1.088693   2 C  s         
    16      0.836065   2 C  s                21     -0.819718   2 C  s         
 
 Vector  114  Occ=0.000000D+00  E= 6.239650D+01
              MO Center=  1.0D+00, -1.4D-02,  7.1D-01, r^2= 7.5D-01
   Bfn.  Coefficient  Atom+Function         Bfn.  Coefficient  Atom+Function  
  ----- ------------  ---------------      ----- ------------  ---------------
    32      2.664075   3 C  s                33     -2.041697   3 C  s         
    31     -1.571400   3 C  s                34      1.409192   3 C  s         
    36      1.313289   3 C  s                35     -1.263790   3 C  s         
    17     -0.940265   2 C  s                 2     -0.873506   1 C  s         
    18      0.722901   2 C  s                 3      0.671868   1 C  s         
 
 Vector  115  Occ=0.000000D+00  E= 1.175586D+02
              MO Center= -8.9D-02, -2.0D-01, -1.1D+00, r^2= 4.5D-02
   Bfn.  Coefficient  Atom+Function         Bfn.  Coefficient  Atom+Function  
  ----- ------------  ---------------      ----- ------------  ---------------
    47      2.970566   4 O  s                48     -2.275921   4 O  s         
    46     -1.756233   4 O  s                49      1.441023   4 O  s         
    50     -1.095627   4 O  s                51      0.705880   4 O  s         
    30      0.257751   2 C  pz               21     -0.191061   2 C  s         
    60      0.109528   4 O  pz               36     -0.108098   3 C  s         
 
 Vector  116  Occ=0.000000D+00  E= 1.228269D+02
              MO Center= -2.5D+00,  7.1D-01, -1.1D-01, r^2= 1.0D+00
   Bfn.  Coefficient  Atom+Function         Bfn.  Coefficient  Atom+Function  
  ----- ------------  ---------------      ----- ------------  ---------------
    63      2.226169   5 Cl s                64     -1.690218   5 Cl s         
    62     -1.581720   5 Cl s                65      1.140515   5 Cl s         
    66     -0.521187   5 Cl s                91      0.412146   8 Cl s         
    67      0.373831   5 Cl s                92     -0.312395   8 Cl s         
    90     -0.292899   8 Cl s                 6     -0.220976   1 C  s         
 
 Vector  117  Occ=0.000000D+00  E= 1.228725D+02
              MO Center=  2.4D+00, -8.7D-01, -2.6D-01, r^2= 1.0D+00
   Bfn.  Coefficient  Atom+Function         Bfn.  Coefficient  Atom+Function  
  ----- ------------  ---------------      ----- ------------  ---------------
    91      2.226366   8 Cl s                92     -1.691133   8 Cl s         
    90     -1.581770   8 Cl s                93      1.142251   8 Cl s         
    94     -0.525231   8 Cl s                63     -0.412549   5 Cl s         
    95      0.385789   8 Cl s                64      0.313905   5 Cl s         
    62      0.293040   5 Cl s                65     -0.212771   5 Cl s         
 
 Vector  118  Occ=0.000000D+00  E= 8.993771D+02
              MO Center= -2.4D+00,  6.9D-01, -1.2D-01, r^2= 1.3D+00
   Bfn.  Coefficient  Atom+Function         Bfn.  Coefficient  Atom+Function  
  ----- ------------  ---------------      ----- ------------  ---------------
    62      2.291982   5 Cl s                61     -1.704626   5 Cl s         
    63     -1.288351   5 Cl s                64      0.685884   5 Cl s         
    90      0.484161   8 Cl s                65     -0.442685   5 Cl s         
    89     -0.360115   8 Cl s                91     -0.272091   8 Cl s         
    66      0.201539   5 Cl s                67     -0.144940   5 Cl s         
 
 Vector  119  Occ=0.000000D+00  E= 8.994246D+02
              MO Center=  2.4D+00, -8.5D-01, -2.6D-01, r^2= 1.3D+00
   Bfn.  Coefficient  Atom+Function         Bfn.  Coefficient  Atom+Function  
  ----- ------------  ---------------      ----- ------------  ---------------
    90      2.292052   8 Cl s                89     -1.704637   8 Cl s         
    91     -1.288481   8 Cl s                92      0.686278   8 Cl s         
    62     -0.484271   5 Cl s                93     -0.443397   8 Cl s         
    61      0.360133   5 Cl s                63      0.272297   5 Cl s         
    94      0.203185   8 Cl s                95     -0.149760   8 Cl s         
 

 center of mass
 --------------
 x =   0.00463435 y =  -0.02376092 z =  -0.07033834

 moments of inertia (a.u.)
 ------------------
         390.808650250735         580.761885086887          41.999259676401
         580.761885086887        2081.106825469759         -57.160496348040
          41.999259676401         -57.160496348040        2098.385624088060
 
     Multipole analysis of the density
     ---------------------------------
 
     L   x y z        total         alpha         beta         nuclear
     -   - - -        -----         -----         ----         -------
     0   0 0 0      1.000000    -32.000000    -32.000000     65.000000
 
     1   1 0 0     -0.584686     -0.292343     -0.292343      0.000000
     1   0 1 0      0.545483      0.272741      0.272741     -0.000000
     1   0 0 1      1.159543      0.579771      0.579771      0.000000
 
     2   2 0 0    -30.261059   -484.294071   -484.294071    938.327082
     2   1 1 0      0.097662    141.451302    141.451302   -282.804942
     2   1 0 1      2.361875      9.831437      9.831437    -17.300998
     2   0 2 0    -33.609037    -69.586368    -69.586368    105.563698
     2   0 1 1      0.818094    -15.222296    -15.222296     31.262686
     2   0 0 2    -28.359750    -70.870992    -70.870992    113.382234
 

 Task  times  cpu:        4.7s     wall:        5.0s
 
 
                                NWChem Input Module
                                -------------------
 
 
 Summary of allocated global arrays
-----------------------------------
  No active global arrays



                         GA Statistics for process    0
                         ------------------------------

       create   destroy   get      put      acc     scatter   gather  read&inc
calls:  178      178     1.37e+04 1648     1.06e+04    0        0      442     
number of processes/call 1.42e+01 5.25e+01 9.76e+00 0.00e+00 0.00e+00
bytes total:             4.56e+07 5.76e+06 2.46e+07 0.00e+00 0.00e+00 3.54e+03
bytes remote:            3.67e+07 3.16e+06 2.09e+07 0.00e+00 0.00e+00 0.00e+00
Max memory consumed for GA by this process: 616888 bytes
 
 
 
                                     CITATION
                                     --------
                Please cite the following reference when publishing
                           results obtained with NWChem:
 
          E. Apr, E. J. Bylaska, W. A. de Jong, N. Govind, K. Kowalski,
       T. P. Straatsma, M. Valiev, H. J. J. van Dam, Y. Alexeev, J. Anchell,
       V. Anisimov, F. W. Aquino, R. Atta-Fynn, J. Autschbach, N. P. Bauman,
     J. C. Becca, D. E. Bernholdt, K. Bhaskaran-Nair, S. Bogatko, P. Borowski,
        J. Boschen, J. Brabec, A. Bruner, E. Caut, Y. Chen, G. N. Chuev,
      C. J. Cramer, J. Daily, M. J. O. Deegan, T. H. Dunning Jr., M. Dupuis,
   K. G. Dyall, G. I. Fann, S. A. Fischer, A. Fonari, H. Frchtl, L. Gagliardi,
      J. Garza, N. Gawande, S. Ghosh, K. Glaesemann, A. W. Gtz, J. Hammond,
       V. Helms, E. D. Hermes, K. Hirao, S. Hirata, M. Jacquelin, L. Jensen,
   B. G. Johnson, H. Jnsson, R. A. Kendall, M. Klemm, R. Kobayashi, V. Konkov,
      S. Krishnamoorthy, M. Krishnan, Z. Lin, R. D. Lins, R. J. Littlefield,
      A. J. Logsdail, K. Lopata, W. Ma, A. V. Marenich, J. Martin del Campo,
   D. Mejia-Rodriguez, J. E. Moore, J. M. Mullin, T. Nakajima, D. R. Nascimento,
    J. A. Nichols, P. J. Nichols, J. Nieplocha, A. Otero-de-la-Roza, B. Palmer,
    A. Panyala, T. Pirojsirikul, B. Peng, R. Peverati, J. Pittner, L. Pollack,
   R. M. Richard, P. Sadayappan, G. C. Schatz, W. A. Shelton, D. W. Silverstein,
   D. M. A. Smith, T. A. Soares, D. Song, M. Swart, H. L. Taylor, G. S. Thomas,
            V. Tipparaju, D. G. Truhlar, K. Tsemekhman, T. Van Voorhis,
     . Vzquez-Mayagoitia, P. Verma, O. Villa, A. Vishnu, K. D. Vogiatzis,
        D. Wang, J. H. Weare, M. J. Williamson, T. L. Windus, K. Woliski,
        A. T. Wong, Q. Wu, C. Yang, Q. Yu, M. Zacharias, Z. Zhang, Y. Zhao,
                                and R. J. Harrison
                        "NWChem: Past, present, and future
                         J. Chem. Phys. 152, 184102 (2020)
                               doi:10.1063/5.0004997
 
                                      AUTHORS
                                      -------
     E. Apra, E. J. Bylaska, N. Govind, K. Kowalski, M. Valiev, W. A. de Jong,
      T. P. Straatsma, H. J. J. van Dam, D. Wang, T. L. Windus, N. P. Bauman,
       A. Panyala, J. Hammond, J. Autschbach, K. Bhaskaran-Nair, J. Brabec,
    K. Lopata, S. A. Fischer, S. Krishnamoorthy, M. Jacquelin, W. Ma, M. Klemm,
       O. Villa, Y. Chen, V. Anisimov, F. Aquino, S. Hirata, M. T. Hackler,
           Eric Hermes, L. Jensen, J. E. Moore, J. C. Becca, V. Konjkov,
            D. Mejia-Rodriguez, T. Risthaus, M. Malagoli, A. Marenich,
   A. Otero-de-la-Roza, J. Mullin, P. Nichols, R. Peverati, J. Pittner, Y. Zhao,
        P.-D. Fan, A. Fonari, M. J. Williamson, R. J. Harrison, J. R. Rehr,
      M. Dupuis, D. Silverstein, D. M. A. Smith, J. Nieplocha, V. Tipparaju,
      M. Krishnan, B. E. Van Kuiken, A. Vazquez-Mayagoitia, M. Swart, Q. Wu,
   T. Van Voorhis, A. A. Auer, M. Nooijen, L. D. Crosby, E. Brown, G. Cisneros,
     G. I. Fann, H. Fruchtl, J. Garza, K. Hirao, R. A. Kendall, J. A. Nichols,
       K. Tsemekhman, K. Wolinski, J. Anchell, D. E. Bernholdt, P. Borowski,
       T. Clark, D. Clerc, H. Dachsel, M. J. O. Deegan, K. Dyall, D. Elwood,
      E. Glendening, M. Gutowski, A. C. Hess, J. Jaffe, B. G. Johnson, J. Ju,
        R. Kobayashi, R. Kutteh, Z. Lin, R. Littlefield, X. Long, B. Meng,
      T. Nakajima, S. Niu, L. Pollack, M. Rosing, K. Glaesemann, G. Sandrone,
      M. Stave, H. Taylor, G. Thomas, J. H. van Lenthe, A. T. Wong, Z. Zhang.

 Total times  cpu:        4.7s     wall:        5.1s
