 
             Northwest Computational Chemistry Package (NWChem) 7.0.0
             --------------------------------------------------------
 
 
                    Environmental Molecular Sciences Laboratory
                       Pacific Northwest National Laboratory
                                Richland, WA 99352
 
                              Copyright (c) 1994-2020
                       Pacific Northwest National Laboratory
                            Battelle Memorial Institute
 
             NWChem is an open-source computational chemistry package
                        distributed under the terms of the
                      Educational Community License (ECL) 2.0
             A copy of the license is included with this distribution
                              in the LICENSE.TXT file
 
                                  ACKNOWLEDGMENT
                                  --------------

            This software and its documentation were developed at the
            EMSL at Pacific Northwest National Laboratory, a multiprogram
            national laboratory, operated for the U.S. Department of Energy
            by Battelle under Contract Number DE-AC05-76RL01830. Support
            for this work was provided by the Department of Energy Office
            of Biological and Environmental Research, Office of Basic
            Energy Sciences, and the Office of Advanced Scientific Computing.


                                NWChem Input Module
                                -------------------
 
 
 Summary of "ao basis" -> "" (spherical)
 ------------------------------------------------------------------------------
       Tag                 Description            Shells   Functions and Types
 ---------------- ------------------------------  ------  ---------------------
 *                        ahlrichs_vtz                on all atoms 



 Scaling coordinates for geometry "geometry" by  1.889725989
 (inverse scale =  0.529177249)

 
 
                             Geometry "geometry" -> ""
                             -------------------------
 
 Output coordinates in angstroms (scale by  1.889725989 to convert to a.u.)
 
  No.       Tag          Charge          X              Y              Z
 ---- ---------------- ---------- -------------- -------------- --------------
    1 C                    6.0000    -2.44154300     0.89099523    -0.22343108
    2 C                    6.0000    -1.28251486     0.21105691    -0.96689396
    3 H                    1.0000    -2.60533723     0.43851757     0.76339724
    4 H                    1.0000    -3.36527459     0.77098648    -0.80321725
    5 H                    1.0000    -2.26658883     1.96817014    -0.09131876
    6 C                    6.0000     0.04875152     0.38936861    -0.27573296
    7 H                    1.0000    -1.16799818     0.66462487    -1.97056978
    8 H                    1.0000    -1.48808004    -0.85931869    -1.12242782
    9 C                    6.0000     1.17664902    -0.45232596    -0.71435463
   10 O                    8.0000     2.42794735    -0.08671523    -0.80302970
   11 H                    1.0000     1.01173518    -1.48224511    -1.03717091
   12 Cl                  17.0000     0.14600546    -0.54814003     1.43260361
   13 H                    1.0000     0.30565485     1.42966359    -0.04126591
   14 H                    1.0000     2.66216094     0.84713501    -0.54497489
 
      Atomic Mass 
      ----------- 
 
      C                 12.000000
      H                  1.007825
      O                 15.994910
      Cl                34.968850
 

 Effective nuclear repulsion energy (a.u.)     295.7628225481

            Nuclear Dipole moment (a.u.) 
            ----------------------------
        X                 Y               Z
 ---------------- ---------------- ----------------
     0.0000000000     0.0000000000     0.0000000000
 
 
            XYZ format geometry
            -------------------
    14
 geometry
 C                    -2.44154300     0.89099523    -0.22343108
 C                    -1.28251486     0.21105691    -0.96689396
 H                    -2.60533723     0.43851757     0.76339724
 H                    -3.36527459     0.77098648    -0.80321725
 H                    -2.26658883     1.96817014    -0.09131876
 C                     0.04875152     0.38936861    -0.27573296
 H                    -1.16799818     0.66462487    -1.97056978
 H                    -1.48808004    -0.85931869    -1.12242782
 C                     1.17664902    -0.45232596    -0.71435463
 O                     2.42794735    -0.08671523    -0.80302970
 H                     1.01173518    -1.48224511    -1.03717091
 Cl                    0.14600546    -0.54814003     1.43260361
 H                     0.30565485     1.42966359    -0.04126591
 H                     2.66216094     0.84713501    -0.54497489
 
 ==============================================================================
                                internuclear distances
 ------------------------------------------------------------------------------
       center one      |      center two      | atomic units |  angstroms
 ------------------------------------------------------------------------------
    2 C                |   1 C                |     2.90207  |     1.53571
    3 H                |   1 C                |     2.07474  |     1.09790
    4 H                |   1 C                |     2.07340  |     1.09719
    5 H                |   1 C                |     2.07730  |     1.09926
    6 C                |   2 C                |     2.85453  |     1.51055
    7 H                |   2 C                |     2.09257  |     1.10734
    8 H                |   2 C                |     2.08055  |     1.10098
    9 C                |   6 C                |     2.78566  |     1.47411
   10 O                |   9 C                |     2.46917  |     1.30663
   11 H                |   9 C                |     2.06330  |     1.09185
   12 Cl               |   6 C                |     3.68705  |     1.95110
   13 H                |   6 C                |     2.07284  |     1.09690
   14 H                |  10 O                |     1.88360  |     0.99676
 ------------------------------------------------------------------------------
                         number of included internuclear distances:         13
 ==============================================================================



 ==============================================================================
                                 internuclear angles
 ------------------------------------------------------------------------------
        center 1       |       center 2       |       center 3       |  degrees
 ------------------------------------------------------------------------------
    2 C                |   1 C                |   3 H                |   111.42
    2 C                |   1 C                |   4 H                |   109.34
    2 C                |   1 C                |   5 H                |   111.83
    3 H                |   1 C                |   4 H                |   107.72
    3 H                |   1 C                |   5 H                |   108.64
    4 H                |   1 C                |   5 H                |   107.74
    1 C                |   2 C                |   6 C                |   113.04
    1 C                |   2 C                |   7 H                |   109.60
    1 C                |   2 C                |   8 H                |   110.97
    6 C                |   2 C                |   7 H                |   105.98
    6 C                |   2 C                |   8 H                |   110.12
    7 H                |   2 C                |   8 H                |   106.83
    2 C                |   6 C                |   9 C                |   118.08
    2 C                |   6 C                |  12 Cl               |   112.82
    2 C                |   6 C                |  13 H                |   114.59
    9 C                |   6 C                |  12 Cl               |    87.02
    9 C                |   6 C                |  13 H                |   115.21
   12 Cl               |   6 C                |  13 H                |   104.88
    6 C                |   9 C                |  10 O                |   126.38
    6 C                |   9 C                |  11 H                |   120.73
   10 O                |   9 C                |  11 H                |   112.86
    9 C                |  10 O                |  14 H                |   118.01
 ------------------------------------------------------------------------------
                            number of included internuclear angles:         22
 ==============================================================================



                              Aldehyde and Ketone set
                              -----------------------
 
                                 NWChem DFT Module
                                 -----------------
 
 
                              Aldehyde and Ketone set
 
 
                      Basis "ao basis" -> "ao basis" (spherical)
                      -----
  C (Carbon)
  ----------
            Exponent  Coefficients 
       -------------- ---------------------------------------------------------
  1 S  8.50603840E+03  0.000534
  1 S  1.27573290E+03  0.004125
  1 S  2.90311870E+02  0.021171
  1 S  8.20562000E+01  0.082418
  1 S  2.64796410E+01  0.240129
 
  2 S  9.24145850E+00  1.000000
 
  3 S  3.36435300E+00  1.000000
 
  4 S  8.71741640E-01  1.000000
 
  5 S  3.63523520E-01  1.000000
 
  6 S  1.28731350E-01  1.000000
 
  7 P  3.47094960E+01  0.005330
  7 P  7.95908830E+00  0.035866
  7 P  2.37869720E+00  0.142003
  7 P  8.15400650E-01  0.342031
 
  8 P  2.89537850E-01  1.000000
 
  9 P  1.00847540E-01  1.000000
 
  H (Hydrogen)
  ------------
            Exponent  Coefficients 
       -------------- ---------------------------------------------------------
  1 S  3.40613410E+01  0.006025
  1 S  5.12357460E+00  0.045021
  1 S  1.16466260E+00  0.201897
 
  2 S  3.27230410E-01  1.000000
 
  3 S  1.03072410E-01  1.000000
 
  O (Oxygen)
  ----------
            Exponent  Coefficients 
       -------------- ---------------------------------------------------------
  1 S  1.59026475E+04  0.000515
  1 S  2.38495378E+03  0.003982
  1 S  5.42719572E+02  0.020477
  1 S  1.53404079E+02  0.080262
  1 S  4.95457161E+01  0.237668
 
  2 S  1.73396499E+01  1.000000
 
  3 S  6.33033553E+00  1.000000
 
  4 S  1.69958822E+00  1.000000
 
  5 S  6.89544913E-01  1.000000
 
  6 S  2.39360282E-01  1.000000
 
  7 P  6.32705240E+01  0.006071
  7 P  1.46233123E+01  0.041948
  7 P  4.44895180E+00  0.161569
  7 P  1.52815132E+00  0.356828
 
  8 P  5.29973159E-01  1.000000
 
  9 P  1.75094460E-01  1.000000
 
  Cl (Chlorine)
  -------------
            Exponent  Coefficients 
       -------------- ---------------------------------------------------------
  1 S  1.17805790E+05  0.000242
  1 S  1.76602650E+04  0.001874
  1 S  4.01859730E+03  0.009736
  1 S  1.13622310E+03  0.039495
  1 S  3.68120620E+02  0.127972
 
  2 S  1.30861540E+02  1.000000
 
  3 S  5.04790110E+01  0.428741
  3 S  2.09168050E+01  0.196685
 
  4 S  6.35313880E+00  1.000000
 
  5 S  2.49480140E+00  1.000000
 
  6 S  5.43359480E-01  1.000000
 
  7 S  1.94343660E-01  1.000000
 
  8 P  6.81068790E+02  0.002366
  8 P  1.61113590E+02  0.018941
  8 P  5.13866370E+01  0.087845
  8 P  1.89585120E+01  0.257074
  8 P  3.00351580E+00  0.371524
 
  9 P  7.45652930E+00  1.000000
 
 10 P  1.06093610E+00  1.000000
 
 11 P  3.94520230E-01  1.000000
 
 12 P  1.33232790E-01  1.000000
 


 Summary of "ao basis" -> "ao basis" (spherical)
 ------------------------------------------------------------------------------
       Tag                 Description            Shells   Functions and Types
 ---------------- ------------------------------  ------  ---------------------
 C                        ahlrichs vtz               9       15   6s3p
 H                        ahlrichs vtz               3        3   3s
 O                        ahlrichs vtz               9       15   6s3p
 Cl                       ahlrichs vtz              12       22   7s5p




 Summary of "ao basis" -> "ao basis" (spherical)
 ------------------------------------------------------------------------------
       Tag                 Description            Shells   Functions and Types
 ---------------- ------------------------------  ------  ---------------------
 C                        ahlrichs vtz               9       15   6s3p
 H                        ahlrichs vtz               3        3   3s
 O                        ahlrichs vtz               9       15   6s3p
 Cl                       ahlrichs vtz              12       22   7s5p


  Caching 1-el integrals 
 
            General Information
            -------------------
          SCF calculation type: DFT
          Wavefunction type:  closed shell.
          No. of atoms     :    14
          No. of electrons :    56
           Alpha electrons :    28
            Beta electrons :    28
          Charge           :     1
          Spin multiplicity:     1
          Use of symmetry is: off; symmetry adaption is: off
          Maximum number of iterations: ***
          This is a Direct SCF calculation.
          AO basis - number of functions:   121
                     number of shells:    81
          Convergence on energy requested:  1.00D-08
          Convergence on density requested:  1.00D-07
          Convergence on gradient requested:  1.00D-06
 
              XC Information
              --------------
                        PBE96 Method XC Functional
          PerdewBurkeErnzerhof Exchange Functional  1.000          
            Perdew 1991 LDA Correlation Functional  1.000 local    
           PerdewBurkeErnz. Correlation Functional  1.000 non-local
 
             Grid Information
             ----------------
          Grid used for XC integration:  fine      
          Radial quadrature: Mura-Knowles        
          Angular quadrature: Lebedev. 
          Tag              B.-S. Rad. Rad. Pts. Rad. Cut. Ang. Pts.
          ---              ---------- --------- --------- ---------
          C                   0.70       70          13.0       590
          H                   0.35       60          14.0       590
          O                   0.60       70          14.0       590
          Cl                  1.00      123          12.0       770
          Grid pruning is: on 
          Number of quadrature shells:   953
          Spatial weights used:  Erf1
 
          Convergence Information
          -----------------------
          Convergence aids based upon iterative change in 
          total energy or number of iterations. 
          Levelshifting, if invoked, occurs when the 
          HOMO/LUMO gap drops below (HL_TOL):  1.00D-02
          DIIS, if invoked, will attempt to extrapolate 
          using up to (NFOCK): 10 stored Fock matrices.

                    Damping( 0%)  Levelshifting(0.5)       DIIS
                  --------------- ------------------- ---------------
          dE  on:    start            ASAP                start   
          dE off:    2 iters        *** iters           *** iters 

 
      Screening Tolerance Information
      -------------------------------
          Density screening/tol_rho:  1.00D-12
          AO Gaussian exp screening on grid/accAOfunc:  18
          CD Gaussian exp screening on grid/accCDfunc:  20
          XC Gaussian exp screening on grid/accXCfunc:  20
          Schwarz screening/accCoul:  1.00D-12

      Dispersion Parameters
      ---------------------

           DFT-D3BJ Model   
          s6 scale factor  :        1.000000000000
          s8 scale factor  :        0.787500000000
          a1 parameter     :        0.428900000000
          a2 parameter     :        4.440700000000
              vdW contrib  :       -0.011651417988


 Forcing the number of linearly dependent vectors to be  0
 
      Superposition of Atomic Density Guess
      -------------------------------------
 
 Sum of atomic energies:        -688.94818175
   Time after variat. SCF:      0.3
   Time prior to 1st pass:      0.3

 Grid_pts file          = ./08_CH3CH2ClCHCHOH.gridpts.00
 Record size in doubles =  12289        No. of grid_pts per rec  =   3070
 Max. records in memory =     19        Max. recs in file   =  67550051

 Grid integrated density:      56.999992616496
 Requested integration accuracy:   0.10E-06

           Memory utilization after 1st SCF pass: 
           Heap Space remaining (MW):        0.00                 476
          Stack Space remaining (MW):      288.36           288357332

   convergence    iter        energy       DeltaE   RMS-Dens  Diis-err    time
 ---------------- ----- ----------------- --------- --------- ---------  ------
 d= 0,ls=0.0,diis     1   -692.9638611075 -9.89D+02  2.38D-02  6.28D+01     0.6
 Grid integrated density:      55.999992647879
 Requested integration accuracy:   0.10E-06
 d= 0,ls=0.0,diis     2   -691.7529879359  1.21D+00  2.09D-02  1.16D+00     1.0
 Grid integrated density:      55.999994231640
 Requested integration accuracy:   0.10E-06
 d= 0,ls=0.0,diis     3   -690.6509816683  1.10D+00  1.72D-02  7.57D+00     1.4
 Grid integrated density:      55.999992204483
 Requested integration accuracy:   0.10E-06
 d= 0,ls=0.0,diis     4   -691.8628425993 -1.21D+00  4.86D-03  2.96D-01     1.9
 Grid integrated density:      55.999993015856
 Requested integration accuracy:   0.10E-06
 d= 0,ls=0.0,diis     5   -691.8874815742 -2.46D-02  2.17D-03  1.14D-01     2.3
 Grid integrated density:      55.999993217385
 Requested integration accuracy:   0.10E-06
 d= 0,ls=0.0,diis     6   -691.8936756949 -6.19D-03  1.18D-03  3.91D-02     2.7
 Grid integrated density:      55.999993032497
 Requested integration accuracy:   0.10E-06
 d= 0,ls=0.0,diis     7   -691.8984706935 -4.79D-03  3.49D-04  1.21D-03     3.1
 Grid integrated density:      55.999993061646
 Requested integration accuracy:   0.10E-06
 d= 0,ls=0.0,diis     8   -691.8985673124 -9.66D-05  2.04D-04  5.37D-04     3.6
 Grid integrated density:      55.999993039411
 Requested integration accuracy:   0.10E-06
 d= 0,ls=0.0,diis     9   -691.8986444824 -7.72D-05  3.14D-05  2.26D-05     4.0
 Grid integrated density:      55.999993045528
 Requested integration accuracy:   0.10E-06
 d= 0,ls=0.0,diis    10   -691.8986475603 -3.08D-06  1.17D-05  9.38D-07     4.4
 Grid integrated density:      55.999993045090
 Requested integration accuracy:   0.10E-06
 d= 0,ls=0.0,diis    11   -691.8986476899 -1.30D-07  1.63D-06  4.60D-08     4.9
 Grid integrated density:      55.999993045213
 Requested integration accuracy:   0.10E-06
 d= 0,ls=0.0,diis    12   -691.8986476961 -6.17D-09  4.84D-07  4.25D-09     5.3
 Grid integrated density:      55.999993045232
 Requested integration accuracy:   0.10E-06
 d= 0,ls=0.0,diis    13   -691.8986476966 -4.96D-10  1.36D-07  7.78D-11     5.7
 Grid integrated density:      55.999993045228
 Requested integration accuracy:   0.10E-06
 d= 0,ls=0.0,diis    14   -691.8986476966 -1.36D-11  2.67D-08  4.56D-12     6.1


         Total DFT energy =     -691.898647696617
      One electron energy =    -1524.097131382343
           Coulomb energy =      597.061362465885
          Exchange energy =      -58.672963979585
       Correlation energy =       -1.941085930730
 Nuclear repulsion energy =      295.762822548144

    Dispersion correction =       -0.011651417988

 Numeric. integr. density =       55.999993045228

     Total iterative time =      5.8s


 
                       DFT Final Molecular Orbital Analysis
                       ------------------------------------
 
 Vector    1  Occ=2.000000D+00  E=-1.008934D+02
              MO Center=  1.5D-01, -5.5D-01,  1.4D+00, r^2= 3.1D-03
   Bfn.  Coefficient  Atom+Function         Bfn.  Coefficient  Atom+Function  
  ----- ------------  ---------------      ----- ------------  ---------------
    96      0.598198  12 Cl s                95      0.326071  12 Cl s         
    94      0.184384  12 Cl s         
 
 Vector    2  Occ=2.000000D+00  E=-1.908727D+01
              MO Center=  2.4D+00, -8.7D-02, -8.0D-01, r^2= 1.5D-02
   Bfn.  Coefficient  Atom+Function         Bfn.  Coefficient  Atom+Function  
  ----- ------------  ---------------      ----- ------------  ---------------
    77      0.424653  10 O  s                78      0.366173  10 O  s         
    76      0.299520  10 O  s                79      0.055428  10 O  s         
 
 Vector    3  Occ=2.000000D+00  E=-1.026692D+01
              MO Center=  1.2D+00, -4.5D-01, -7.1D-01, r^2= 2.8D-02
   Bfn.  Coefficient  Atom+Function         Bfn.  Coefficient  Atom+Function  
  ----- ------------  ---------------      ----- ------------  ---------------
    62      0.424284   9 C  s                63      0.359608   9 C  s         
    61      0.308805   9 C  s                64      0.057206   9 C  s         
 
 Vector    4  Occ=2.000000D+00  E=-1.019763D+01
              MO Center=  4.9D-02,  3.9D-01, -2.8D-01, r^2= 2.8D-02
   Bfn.  Coefficient  Atom+Function         Bfn.  Coefficient  Atom+Function  
  ----- ------------  ---------------      ----- ------------  ---------------
    41      0.424391   6 C  s                42      0.359391   6 C  s         
    40      0.308835   6 C  s                43      0.057694   6 C  s         
 
 Vector    5  Occ=2.000000D+00  E=-1.009635D+01
              MO Center= -1.3D+00,  2.1D-01, -9.7D-01, r^2= 2.8D-02
   Bfn.  Coefficient  Atom+Function         Bfn.  Coefficient  Atom+Function  
  ----- ------------  ---------------      ----- ------------  ---------------
    17      0.424315   2 C  s                18      0.359362   2 C  s         
    16      0.308840   2 C  s                19      0.057763   2 C  s         
 
 Vector    6  Occ=2.000000D+00  E=-1.004202D+01
              MO Center= -2.4D+00,  8.9D-01, -2.2D-01, r^2= 2.8D-02
   Bfn.  Coefficient  Atom+Function         Bfn.  Coefficient  Atom+Function  
  ----- ------------  ---------------      ----- ------------  ---------------
     2      0.424255   1 C  s                 3      0.359440   1 C  s         
     1      0.308836   1 C  s                 4      0.057554   1 C  s         
 
 Vector    7  Occ=2.000000D+00  E=-9.396131D+00
              MO Center=  1.5D-01, -5.5D-01,  1.4D+00, r^2= 6.6D-02
   Bfn.  Coefficient  Atom+Function         Bfn.  Coefficient  Atom+Function  
  ----- ------------  ---------------      ----- ------------  ---------------
    98      0.583489  12 Cl s                97      0.523031  12 Cl s         
    96     -0.293212  12 Cl s                95     -0.113726  12 Cl s         
    99      0.059444  12 Cl s                94     -0.054086  12 Cl s         
   100     -0.025525  12 Cl s         
 
 Vector    8  Occ=2.000000D+00  E=-7.223797D+00
              MO Center=  1.5D-01, -5.5D-01,  1.4D+00, r^2= 5.8D-02
   Bfn.  Coefficient  Atom+Function         Bfn.  Coefficient  Atom+Function  
  ----- ------------  ---------------      ----- ------------  ---------------
   103      0.518513  12 Cl pz              106      0.391597  12 Cl pz        
   102     -0.219819  12 Cl py              105     -0.166015  12 Cl py        
   109      0.065831  12 Cl pz              101     -0.036732  12 Cl px        
   108     -0.027911  12 Cl py              104     -0.027739  12 Cl px        
 
 Vector    9  Occ=2.000000D+00  E=-7.211409D+00
              MO Center=  1.5D-01, -5.5D-01,  1.4D+00, r^2= 5.8D-02
   Bfn.  Coefficient  Atom+Function         Bfn.  Coefficient  Atom+Function  
  ----- ------------  ---------------      ----- ------------  ---------------
   101      0.427666  12 Cl px              102     -0.349506  12 Cl py        
   104      0.322861  12 Cl px              105     -0.263856  12 Cl py        
   103     -0.117874  12 Cl pz              106     -0.088986  12 Cl pz        
   107      0.053502  12 Cl px              108     -0.043700  12 Cl py        
 
 Vector   10  Occ=2.000000D+00  E=-7.208111D+00
              MO Center=  1.5D-01, -5.5D-01,  1.4D+00, r^2= 5.8D-02
   Bfn.  Coefficient  Atom+Function         Bfn.  Coefficient  Atom+Function  
  ----- ------------  ---------------      ----- ------------  ---------------
   102      0.385303  12 Cl py              101      0.367066  12 Cl px        
   105      0.290847  12 Cl py              104      0.277082  12 Cl px        
   103      0.189350  12 Cl pz              106      0.142932  12 Cl pz        
   108      0.047976  12 Cl py              107      0.045742  12 Cl px        
 
 Vector   11  Occ=2.000000D+00  E=-1.282447D+00
              MO Center=  2.2D+00, -3.6D-02, -7.4D-01, r^2= 5.5D-01
   Bfn.  Coefficient  Atom+Function         Bfn.  Coefficient  Atom+Function  
  ----- ------------  ---------------      ----- ------------  ---------------
    80      0.518646  10 O  s                81      0.263011  10 O  s         
    65      0.190759   9 C  s                78     -0.141971  10 O  s         
    77     -0.118342  10 O  s                79      0.112450  10 O  s         
    67      0.105200   9 C  px               82     -0.097073  10 O  px        
    85     -0.095208  10 O  px              119      0.074440  14 H  s         
 
 Vector   12  Occ=2.000000D+00  E=-1.020919D+00
              MO Center=  2.6D-01, -1.2D-01,  2.4D-01, r^2= 1.8D+00
   Bfn.  Coefficient  Atom+Function         Bfn.  Coefficient  Atom+Function  
  ----- ------------  ---------------      ----- ------------  ---------------
    99      0.374879  12 Cl s                44      0.331104   6 C  s         
   100      0.290919  12 Cl s                98     -0.230930  12 Cl s         
    65      0.185094   9 C  s                97     -0.140257  12 Cl s         
    20      0.127448   2 C  s                45      0.123609   6 C  s         
    80     -0.112625  10 O  s                42     -0.088244   6 C  s         
 
 Vector   13  Occ=2.000000D+00  E=-9.114915D-01
              MO Center=  1.5D-02, -1.5D-01,  2.8D-01, r^2= 3.2D+00
   Bfn.  Coefficient  Atom+Function         Bfn.  Coefficient  Atom+Function  
  ----- ------------  ---------------      ----- ------------  ---------------
    99      0.468848  12 Cl s               100      0.399838  12 Cl s         
    98     -0.285894  12 Cl s                20     -0.225423   2 C  s         
    65     -0.208203   9 C  s                44     -0.186277   6 C  s         
    97     -0.176115  12 Cl s                 5     -0.102648   1 C  s         
    21     -0.077483   2 C  s                48      0.076410   6 C  pz        
 
 Vector   14  Occ=2.000000D+00  E=-8.846908D-01
              MO Center=  5.6D-01,  9.5D-02, -6.9D-01, r^2= 4.4D+00
   Bfn.  Coefficient  Atom+Function         Bfn.  Coefficient  Atom+Function  
  ----- ------------  ---------------      ----- ------------  ---------------
    65      0.340075   9 C  s                20     -0.267670   2 C  s         
     5     -0.182709   1 C  s                83     -0.166914  10 O  py        
    82     -0.150589  10 O  px               86     -0.143708  10 O  py        
    81     -0.116291  10 O  s                85     -0.112543  10 O  px        
    80     -0.111056  10 O  s                66      0.103203   9 C  s         
 
 Vector   15  Occ=2.000000D+00  E=-8.277150D-01
              MO Center=  1.0D-01,  2.3D-01, -3.9D-01, r^2= 4.8D+00
   Bfn.  Coefficient  Atom+Function         Bfn.  Coefficient  Atom+Function  
  ----- ------------  ---------------      ----- ------------  ---------------
     5      0.258225   1 C  s                44     -0.241541   6 C  s         
    99      0.178880  12 Cl s                83     -0.173361  10 O  py        
   100      0.173592  12 Cl s                20      0.162068   2 C  s         
    67      0.161554   9 C  px               86     -0.147280  10 O  py        
    82     -0.115659  10 O  px               70      0.112406   9 C  px        
 
 Vector   16  Occ=2.000000D+00  E=-7.393113D-01
              MO Center= -1.2D+00,  4.5D-01, -4.7D-01, r^2= 3.8D+00
   Bfn.  Coefficient  Atom+Function         Bfn.  Coefficient  Atom+Function  
  ----- ------------  ---------------      ----- ------------  ---------------
     5      0.344838   1 C  s                20     -0.248746   2 C  s         
    46      0.133545   6 C  px                6      0.131117   1 C  s         
    68      0.105225   9 C  py               71      0.101512   9 C  py        
     3     -0.091613   1 C  s                49      0.091842   6 C  px        
    22     -0.088637   2 C  px                2     -0.074072   1 C  s         
 
 Vector   17  Occ=2.000000D+00  E=-7.295767D-01
              MO Center=  5.8D-01, -6.0D-03, -5.2D-01, r^2= 3.2D+00
   Bfn.  Coefficient  Atom+Function         Bfn.  Coefficient  Atom+Function  
  ----- ------------  ---------------      ----- ------------  ---------------
    67     -0.193355   9 C  px               65      0.188524   9 C  s         
    47     -0.169846   6 C  py               44     -0.159822   6 C  s         
    82      0.160584  10 O  px                5      0.149502   1 C  s         
    66      0.144200   9 C  s                70     -0.143990   9 C  px        
    68     -0.137094   9 C  py               85      0.132568  10 O  px        
 
 Vector   18  Occ=2.000000D+00  E=-6.665740D-01
              MO Center=  6.6D-01, -4.7D-02, -6.6D-01, r^2= 3.5D+00
   Bfn.  Coefficient  Atom+Function         Bfn.  Coefficient  Atom+Function  
  ----- ------------  ---------------      ----- ------------  ---------------
    68      0.221642   9 C  py               71      0.216657   9 C  py        
    45     -0.201188   6 C  s                44     -0.182849   6 C  s         
    82     -0.178847  10 O  px               85     -0.151409  10 O  px        
    21      0.143669   2 C  s                20      0.131157   2 C  s         
    47     -0.111990   6 C  py               46      0.110281   6 C  px        
 
 Vector   19  Occ=2.000000D+00  E=-6.403033D-01
              MO Center=  1.3D+00, -1.9D-01, -3.9D-01, r^2= 3.1D+00
   Bfn.  Coefficient  Atom+Function         Bfn.  Coefficient  Atom+Function  
  ----- ------------  ---------------      ----- ------------  ---------------
    84      0.273872  10 O  pz               87      0.236730  10 O  pz        
    69      0.212590   9 C  pz               72      0.203050   9 C  pz        
   100     -0.166866  12 Cl s               112     -0.162154  12 Cl pz        
    83     -0.129217  10 O  py               99     -0.128277  12 Cl s         
    90      0.124858  10 O  pz               48      0.112209   6 C  pz        
 
 Vector   20  Occ=2.000000D+00  E=-6.102647D-01
              MO Center= -1.0D-01,  1.4D-01, -4.9D-01, r^2= 3.9D+00
   Bfn.  Coefficient  Atom+Function         Bfn.  Coefficient  Atom+Function  
  ----- ------------  ---------------      ----- ------------  ---------------
    45      0.182418   6 C  s                84     -0.168479  10 O  pz        
    21     -0.165045   2 C  s                50     -0.165585   6 C  py        
    47     -0.162785   6 C  py               24      0.156222   2 C  pz        
    87     -0.146785  10 O  pz               66     -0.125055   9 C  s         
    23     -0.121277   2 C  py               27      0.120870   2 C  pz        
 
 Vector   21  Occ=2.000000D+00  E=-5.768490D-01
              MO Center= -1.8D-01,  1.7D-01, -4.9D-01, r^2= 4.5D+00
   Bfn.  Coefficient  Atom+Function         Bfn.  Coefficient  Atom+Function  
  ----- ------------  ---------------      ----- ------------  ---------------
    84      0.204802  10 O  pz               87      0.179375  10 O  pz        
    49     -0.173418   6 C  px               22      0.171625   2 C  px        
    46     -0.158020   6 C  px               51     -0.144825   6 C  pz        
    48     -0.143228   6 C  pz               25      0.124356   2 C  px        
   111     -0.115808  12 Cl py               45     -0.113106   6 C  s         
 
 Vector   22  Occ=2.000000D+00  E=-5.667366D-01
              MO Center=  9.2D-01, -3.8D-02, -7.0D-01, r^2= 4.6D+00
   Bfn.  Coefficient  Atom+Function         Bfn.  Coefficient  Atom+Function  
  ----- ------------  ---------------      ----- ------------  ---------------
    83      0.226240  10 O  py               86      0.196536  10 O  py        
    82     -0.174117  10 O  px               80     -0.172599  10 O  s         
    92      0.166741  11 H  s                81     -0.153146  10 O  s         
    85     -0.139466  10 O  px               50      0.124886   6 C  py        
    68     -0.124870   9 C  py               44     -0.123603   6 C  s         
 
 Vector   23  Occ=2.000000D+00  E=-5.453999D-01
              MO Center= -5.7D-01,  1.6D-01, -5.9D-02, r^2= 4.8D+00
   Bfn.  Coefficient  Atom+Function         Bfn.  Coefficient  Atom+Function  
  ----- ------------  ---------------      ----- ------------  ---------------
   112      0.252804  12 Cl pz               23     -0.171202   2 C  py        
    26     -0.159947   2 C  py               51     -0.140284   6 C  pz        
   115      0.123343  12 Cl pz               84      0.113138  10 O  pz        
   109      0.113634  12 Cl pz               48     -0.109873   6 C  pz        
    83     -0.107861  10 O  py              111     -0.107596  12 Cl py        
 
 Vector   24  Occ=2.000000D+00  E=-5.053595D-01
              MO Center= -1.3D+00,  3.7D-01, -3.4D-01, r^2= 4.0D+00
   Bfn.  Coefficient  Atom+Function         Bfn.  Coefficient  Atom+Function  
  ----- ------------  ---------------      ----- ------------  ---------------
     7      0.231037   1 C  px               66      0.194882   9 C  s         
    10      0.181291   1 C  px               45     -0.172533   6 C  s         
    22     -0.163625   2 C  px               24      0.163920   2 C  pz        
    27      0.159744   2 C  pz              111     -0.151719  12 Cl py        
    25     -0.133463   2 C  px              110      0.131347  12 Cl px        
 
 Vector   25  Occ=2.000000D+00  E=-4.879583D-01
              MO Center= -2.0D+00,  6.1D-01, -1.5D-01, r^2= 3.3D+00
   Bfn.  Coefficient  Atom+Function         Bfn.  Coefficient  Atom+Function  
  ----- ------------  ---------------      ----- ------------  ---------------
     9      0.231424   1 C  pz               45     -0.201950   6 C  s         
    12      0.198880   1 C  pz               35     -0.186229   4 H  s         
   110      0.158553  12 Cl px               21      0.145180   2 C  s         
    34     -0.141990   4 H  s                 7      0.136397   1 C  px        
   111      0.133074  12 Cl py               10      0.122282   1 C  px        
 
 Vector   26  Occ=2.000000D+00  E=-4.822635D-01
              MO Center=  6.1D-02, -3.3D-01,  8.7D-01, r^2= 3.1D+00
   Bfn.  Coefficient  Atom+Function         Bfn.  Coefficient  Atom+Function  
  ----- ------------  ---------------      ----- ------------  ---------------
   111     -0.328150  12 Cl py              110      0.312689  12 Cl px        
   114     -0.184751  12 Cl py              112     -0.173981  12 Cl pz        
   113      0.173601  12 Cl px              108     -0.152457  12 Cl py        
   107      0.142466  12 Cl px               65     -0.128695   9 C  s         
    45     -0.121510   6 C  s               115     -0.107600  12 Cl pz        
 
 Vector   27  Occ=2.000000D+00  E=-4.747341D-01
              MO Center= -1.9D+00,  6.3D-01, -2.1D-01, r^2= 3.0D+00
   Bfn.  Coefficient  Atom+Function         Bfn.  Coefficient  Atom+Function  
  ----- ------------  ---------------      ----- ------------  ---------------
     8      0.213656   1 C  py               11      0.186321   1 C  py        
    32     -0.179563   3 H  s                38      0.165247   5 H  s         
     9     -0.146984   1 C  pz               56     -0.139971   7 H  s         
    23     -0.138356   2 C  py               31     -0.133869   3 H  s         
    59      0.131404   8 H  s               112      0.131834  12 Cl pz        
 
 Vector   28  Occ=2.000000D+00  E=-4.695053D-01
              MO Center= -1.9D-01, -3.1D-01,  1.0D+00, r^2= 2.9D+00
   Bfn.  Coefficient  Atom+Function         Bfn.  Coefficient  Atom+Function  
  ----- ------------  ---------------      ----- ------------  ---------------
   110      0.362720  12 Cl px              111      0.305537  12 Cl py        
   113      0.227477  12 Cl px              114      0.181526  12 Cl py        
   107      0.170058  12 Cl px              112      0.162863  12 Cl pz        
   108      0.141458  12 Cl py               21      0.131018   2 C  s         
   118     -0.114592  13 H  s               101     -0.108089  12 Cl px        
 
 Vector   29  Occ=0.000000D+00  E=-3.538911D-01
              MO Center=  1.0D+00, -3.7D-01, -2.2D-01, r^2= 2.7D+00
   Bfn.  Coefficient  Atom+Function         Bfn.  Coefficient  Atom+Function  
  ----- ------------  ---------------      ----- ------------  ---------------
    72      0.412618   9 C  pz               69      0.376325   9 C  pz        
   112      0.298506  12 Cl pz               75      0.252355   9 C  pz        
   115      0.236969  12 Cl pz               84     -0.232796  10 O  pz        
    90     -0.228345  10 O  pz               87     -0.198710  10 O  pz        
   100     -0.158710  12 Cl s               109      0.135696  12 Cl pz        
 
 Vector   30  Occ=0.000000D+00  E=-2.539756D-01
              MO Center=  2.6D-01,  2.7D-02,  1.5D-01, r^2= 3.0D+00
   Bfn.  Coefficient  Atom+Function         Bfn.  Coefficient  Atom+Function  
  ----- ------------  ---------------      ----- ------------  ---------------
    45      0.681610   6 C  s                54      0.490457   6 C  pz        
    51      0.419065   6 C  pz              100     -0.400605  12 Cl s         
    48      0.340378   6 C  pz              115      0.316286  12 Cl pz        
    75     -0.303253   9 C  pz              114     -0.284241  12 Cl py        
   112      0.259771  12 Cl pz               81      0.223951  10 O  s         
 
 Vector   31  Occ=0.000000D+00  E=-2.095629D-01
              MO Center=  2.3D+00,  8.9D-01, -4.6D-01, r^2= 3.1D+00
   Bfn.  Coefficient  Atom+Function         Bfn.  Coefficient  Atom+Function  
  ----- ------------  ---------------      ----- ------------  ---------------
   121      1.036797  14 H  s                81     -0.638645  10 O  s         
    66     -0.507155   9 C  s               120      0.399137  14 H  s         
    52      0.392114   6 C  px              118      0.341823  13 H  s         
    89     -0.292767  10 O  py               53     -0.287953   6 C  py        
    93     -0.279609  11 H  s                21      0.255286   2 C  s         
 
 Vector   32  Occ=0.000000D+00  E=-1.457319D-01
              MO Center=  4.1D-01,  7.4D-01, -4.0D-01, r^2= 5.7D+00
   Bfn.  Coefficient  Atom+Function         Bfn.  Coefficient  Atom+Function  
  ----- ------------  ---------------      ----- ------------  ---------------
   118      1.840750  13 H  s                45     -1.044429   6 C  s         
    53     -0.938801   6 C  py               93     -0.792986  11 H  s         
    21     -0.621662   2 C  s                 6     -0.472559   1 C  s         
    81      0.441207  10 O  s                39      0.395647   5 H  s         
    52     -0.391141   6 C  px               54     -0.368919   6 C  pz        
 
 Vector   33  Occ=0.000000D+00  E=-1.337709D-01
              MO Center=  2.6D-02, -8.7D-01, -1.1D+00, r^2= 5.7D+00
   Bfn.  Coefficient  Atom+Function         Bfn.  Coefficient  Atom+Function  
  ----- ------------  ---------------      ----- ------------  ---------------
    93      1.638661  11 H  s                66     -1.485827   9 C  s         
    21     -1.160298   2 C  s                60      0.867684   8 H  s         
    53     -0.846094   6 C  py              118      0.830012  13 H  s         
    74      0.820275   9 C  py               45     -0.596140   6 C  s         
    57      0.591370   7 H  s                29      0.450811   2 C  py        
 
 Vector   34  Occ=0.000000D+00  E=-1.110446D-01
              MO Center= -6.2D-01,  2.9D-01, -9.2D-01, r^2= 7.0D+00
   Bfn.  Coefficient  Atom+Function         Bfn.  Coefficient  Atom+Function  
  ----- ------------  ---------------      ----- ------------  ---------------
    66      2.092497   9 C  s                 6     -1.090959   1 C  s         
    21     -1.070423   2 C  s                57      1.011270   7 H  s         
   118     -0.929498  13 H  s                53      0.897386   6 C  py        
    52     -0.614407   6 C  px               81     -0.600587  10 O  s         
    93     -0.569266  11 H  s                36      0.527870   4 H  s         
 
 Vector   35  Occ=0.000000D+00  E=-8.468955D-02
              MO Center= -9.5D-01,  1.4D-02, -1.1D+00, r^2= 7.0D+00
   Bfn.  Coefficient  Atom+Function         Bfn.  Coefficient  Atom+Function  
  ----- ------------  ---------------      ----- ------------  ---------------
    57      1.616359   7 H  s                60     -1.501157   8 H  s         
    29     -1.264592   2 C  py                6      1.114008   1 C  s         
    30      0.720979   2 C  pz               33     -0.642650   3 H  s         
    73      0.620106   9 C  px              121     -0.548231  14 H  s         
    54     -0.351919   6 C  pz               36     -0.273630   4 H  s         
 
 Vector   36  Occ=0.000000D+00  E=-7.597343D-02
              MO Center= -6.3D-01,  4.0D-01, -5.2D-01, r^2= 8.5D+00
   Bfn.  Coefficient  Atom+Function         Bfn.  Coefficient  Atom+Function  
  ----- ------------  ---------------      ----- ------------  ---------------
    21      2.242532   2 C  s                 6     -1.523790   1 C  s         
    45     -1.116570   6 C  s                39      0.734354   5 H  s         
    60     -0.737609   8 H  s                57     -0.717856   7 H  s         
   118      0.708888  13 H  s                73      0.619890   9 C  px        
    93      0.571945  11 H  s               121     -0.569784  14 H  s         
 
 Vector   37  Occ=0.000000D+00  E=-6.777098D-02
              MO Center= -6.8D-01,  5.6D-01, -5.3D-01, r^2= 6.4D+00
   Bfn.  Coefficient  Atom+Function         Bfn.  Coefficient  Atom+Function  
  ----- ------------  ---------------      ----- ------------  ---------------
    45      2.203634   6 C  s                66     -1.798318   9 C  s         
     6     -1.659571   1 C  s                28     -1.123759   2 C  px        
    54     -1.090419   6 C  pz               30      0.872876   2 C  pz        
    57      0.825510   7 H  s                39      0.808945   5 H  s         
    74     -0.654011   9 C  py               60     -0.621796   8 H  s         
 
 Vector   38  Occ=0.000000D+00  E=-4.110731D-02
              MO Center= -1.6D+00,  2.7D-01, -2.7D-01, r^2= 6.9D+00
   Bfn.  Coefficient  Atom+Function         Bfn.  Coefficient  Atom+Function  
  ----- ------------  ---------------      ----- ------------  ---------------
    30      1.895301   2 C  pz               45     -1.702304   6 C  s         
    33      1.592129   3 H  s                52      1.542550   6 C  px        
    21      1.499805   2 C  s                36     -1.202022   4 H  s         
    15     -1.189124   1 C  pz               57      1.023301   7 H  s         
    28      0.948614   2 C  px               13     -0.816321   1 C  px        
 
 Vector   39  Occ=0.000000D+00  E=-3.144848D-02
              MO Center= -2.2D+00,  8.8D-01, -7.3D-01, r^2= 6.3D+00
   Bfn.  Coefficient  Atom+Function         Bfn.  Coefficient  Atom+Function  
  ----- ------------  ---------------      ----- ------------  ---------------
    36      1.903188   4 H  s                39     -1.635191   5 H  s         
    29     -1.404140   2 C  py               60     -1.309977   8 H  s         
    14      1.296604   1 C  py               13      1.268739   1 C  px        
    33      0.921699   3 H  s                52      0.842070   6 C  px        
    57      0.822060   7 H  s                66     -0.539204   9 C  s         
 
 Vector   40  Occ=0.000000D+00  E=-1.676265D-02
              MO Center= -1.7D+00,  3.4D-01, -2.3D-01, r^2= 7.8D+00
   Bfn.  Coefficient  Atom+Function         Bfn.  Coefficient  Atom+Function  
  ----- ------------  ---------------      ----- ------------  ---------------
    21      2.119480   2 C  s                33     -1.635928   3 H  s         
    52      1.388749   6 C  px               30      1.368665   2 C  pz        
     6     -1.359161   1 C  s                29      1.168281   2 C  py        
    15      1.161556   1 C  pz               66     -1.067829   9 C  s         
    73     -0.949332   9 C  px               60      0.938071   8 H  s         
 
 Vector   41  Occ=0.000000D+00  E= 6.324731D-04
              MO Center= -7.9D-01,  7.1D-01, -6.3D-01, r^2= 7.0D+00
   Bfn.  Coefficient  Atom+Function         Bfn.  Coefficient  Atom+Function  
  ----- ------------  ---------------      ----- ------------  ---------------
    28      2.341087   2 C  px              118     -2.051140  13 H  s         
    39      1.914212   5 H  s                54      1.921544   6 C  pz        
    45     -1.618716   6 C  s                53      1.596696   6 C  py        
    52      1.294191   6 C  px               21      1.275030   2 C  s         
    14     -1.217255   1 C  py               73     -1.102675   9 C  px        
 
 Vector   42  Occ=0.000000D+00  E= 7.712963D-03
              MO Center=  1.2D-01, -1.9D-02, -1.0D+00, r^2= 7.7D+00
   Bfn.  Coefficient  Atom+Function         Bfn.  Coefficient  Atom+Function  
  ----- ------------  ---------------      ----- ------------  ---------------
    75     -1.284138   9 C  pz               73      1.259326   9 C  px        
    52      1.177029   6 C  px               66     -1.163769   9 C  s         
    57     -1.044316   7 H  s                60      1.048442   8 H  s         
    29      1.017869   2 C  py               53     -0.977803   6 C  py        
    45      0.943942   6 C  s               118      0.801872  13 H  s         
 
 Vector   43  Occ=0.000000D+00  E= 1.298230D-02
              MO Center= -6.3D-01,  1.2D-01, -2.3D-01, r^2= 9.1D+00
   Bfn.  Coefficient  Atom+Function         Bfn.  Coefficient  Atom+Function  
  ----- ------------  ---------------      ----- ------------  ---------------
    52      1.414658   6 C  px               73      1.352864   9 C  px        
    45      1.191669   6 C  s                14     -1.180456   1 C  py        
    53     -1.172048   6 C  py               66     -1.118925   9 C  s         
    60      0.957208   8 H  s                93     -0.878440  11 H  s         
    74     -0.868082   9 C  py               13      0.766565   1 C  px        
 
 Vector   44  Occ=0.000000D+00  E= 3.896831D-02
              MO Center= -9.4D-01,  5.9D-01, -6.7D-01, r^2= 7.1D+00
   Bfn.  Coefficient  Atom+Function         Bfn.  Coefficient  Atom+Function  
  ----- ------------  ---------------      ----- ------------  ---------------
    52      1.294779   6 C  px               54      1.250597   6 C  pz        
    21      1.060067   2 C  s                15      0.901637   1 C  pz        
    45      0.854526   6 C  s                30     -0.660215   2 C  pz        
    53     -0.619380   6 C  py               13     -0.611590   1 C  px        
    66     -0.606848   9 C  s                60      0.579106   8 H  s         
 
 Vector   45  Occ=0.000000D+00  E= 6.658299D-02
              MO Center=  2.4D-01, -2.6D-01, -2.8D-01, r^2= 8.1D+00
   Bfn.  Coefficient  Atom+Function         Bfn.  Coefficient  Atom+Function  
  ----- ------------  ---------------      ----- ------------  ---------------
    28      1.585166   2 C  px               73      1.264827   9 C  px        
    52     -0.723254   6 C  px               75      0.565984   9 C  pz        
    66      0.502067   9 C  s                92     -0.495191  11 H  s         
    53     -0.476441   6 C  py               70     -0.463933   9 C  px        
    14     -0.453787   1 C  py               13     -0.416287   1 C  px        
 
 Vector   46  Occ=0.000000D+00  E= 7.498560D-02
              MO Center= -8.4D-01,  5.2D-01, -8.3D-01, r^2= 8.2D+00
   Bfn.  Coefficient  Atom+Function         Bfn.  Coefficient  Atom+Function  
  ----- ------------  ---------------      ----- ------------  ---------------
    74      1.691363   9 C  py               93      1.435977  11 H  s         
    75      1.333836   9 C  pz               14     -1.047295   1 C  py        
    15      0.981930   1 C  pz               73     -0.929177   9 C  px        
    53      0.878349   6 C  py               54     -0.854266   6 C  pz        
    60     -0.799041   8 H  s                52     -0.716580   6 C  px        
 
 Vector   47  Occ=0.000000D+00  E= 8.486547D-02
              MO Center= -3.9D-01,  7.2D-01, -5.0D-01, r^2= 7.2D+00
   Bfn.  Coefficient  Atom+Function         Bfn.  Coefficient  Atom+Function  
  ----- ------------  ---------------      ----- ------------  ---------------
    74     -1.313231   9 C  py               15      1.256816   1 C  pz        
    93     -0.859752  11 H  s                53      0.800520   6 C  py        
    45      0.687029   6 C  s               120      0.582535  14 H  s         
    49      0.535577   6 C  px               66      0.466349   9 C  s         
    70      0.453994   9 C  px               33     -0.371761   3 H  s         
 
 Vector   48  Occ=0.000000D+00  E= 9.673873D-02
              MO Center= -2.5D-01,  2.7D-01, -5.7D-01, r^2= 8.3D+00
   Bfn.  Coefficient  Atom+Function         Bfn.  Coefficient  Atom+Function  
  ----- ------------  ---------------      ----- ------------  ---------------
    74      1.678656   9 C  py               75      1.598197   9 C  pz        
    93      1.406193  11 H  s                14      1.264532   1 C  py        
    54     -1.180740   6 C  pz               13      0.701758   1 C  px        
    29     -0.691637   2 C  py              121     -0.681328  14 H  s         
    30     -0.675712   2 C  pz               52     -0.554276   6 C  px        
 
 Vector   49  Occ=0.000000D+00  E= 1.142079D-01
              MO Center=  2.2D-01,  1.9D-01, -4.6D-01, r^2= 8.2D+00
   Bfn.  Coefficient  Atom+Function         Bfn.  Coefficient  Atom+Function  
  ----- ------------  ---------------      ----- ------------  ---------------
    66      1.085347   9 C  s                13     -0.963959   1 C  px        
    30     -0.966892   2 C  pz               74     -0.778120   9 C  py        
    52     -0.752873   6 C  px               73     -0.701672   9 C  px        
    93     -0.657255  11 H  s                53      0.626878   6 C  py        
   121      0.618075  14 H  s                88      0.580342  10 O  px        
 
 Vector   50  Occ=0.000000D+00  E= 1.243495D-01
              MO Center=  4.6D-01, -1.1D-01, -2.5D-01, r^2= 7.0D+00
   Bfn.  Coefficient  Atom+Function         Bfn.  Coefficient  Atom+Function  
  ----- ------------  ---------------      ----- ------------  ---------------
    93      1.285519  11 H  s                74      1.109619   9 C  py        
    30      1.006961   2 C  pz               66      0.954213   9 C  s         
    29     -0.931181   2 C  py              121     -0.910576  14 H  s         
    14      0.842115   1 C  py              120      0.662671  14 H  s         
    92     -0.591876  11 H  s                28     -0.583988   2 C  px        
 
 Vector   51  Occ=0.000000D+00  E= 1.287988D-01
              MO Center=  9.3D-01, -2.1D-02,  2.9D-01, r^2= 8.3D+00
   Bfn.  Coefficient  Atom+Function         Bfn.  Coefficient  Atom+Function  
  ----- ------------  ---------------      ----- ------------  ---------------
    53      3.132062   6 C  py              118     -2.113248  13 H  s         
    45     -1.947343   6 C  s                21      1.410360   2 C  s         
    28      1.414393   2 C  px               15     -1.101691   1 C  pz        
   115     -1.069219  12 Cl pz               66      0.872219   9 C  s         
   120      0.800056  14 H  s                29     -0.781478   2 C  py        
 
 Vector   52  Occ=0.000000D+00  E= 1.378868D-01
              MO Center= -6.5D-01,  3.1D-02,  3.5D-01, r^2= 8.1D+00
   Bfn.  Coefficient  Atom+Function         Bfn.  Coefficient  Atom+Function  
  ----- ------------  ---------------      ----- ------------  ---------------
    29      2.293456   2 C  py               54      1.997217   6 C  pz        
    14     -1.495180   1 C  py               13     -1.256425   1 C  px        
    28      1.149141   2 C  px               73     -0.996070   9 C  px        
    45     -0.940746   6 C  s               115      0.835633  12 Cl pz        
    60      0.777110   8 H  s                66      0.764058   9 C  s         
 
 Vector   53  Occ=0.000000D+00  E= 1.710422D-01
              MO Center= -1.3D-01, -3.5D-01,  3.9D-01, r^2= 6.4D+00
   Bfn.  Coefficient  Atom+Function         Bfn.  Coefficient  Atom+Function  
  ----- ------------  ---------------      ----- ------------  ---------------
    45      2.935030   6 C  s                74     -1.973871   9 C  py        
    93     -1.387568  11 H  s                29     -1.071365   2 C  py        
    30     -0.986488   2 C  pz               44     -0.945249   6 C  s         
    52      0.935333   6 C  px               60     -0.888959   8 H  s         
   114     -0.714848  12 Cl py               20      0.631877   2 C  s         
 
 Vector   54  Occ=0.000000D+00  E= 2.053744D-01
              MO Center= -3.2D-01, -1.0D-01, -4.8D-01, r^2= 8.0D+00
   Bfn.  Coefficient  Atom+Function         Bfn.  Coefficient  Atom+Function  
  ----- ------------  ---------------      ----- ------------  ---------------
    53      4.676642   6 C  py               74     -4.001638   9 C  py        
    52      3.691718   6 C  px               29     -3.567744   2 C  py        
    93     -3.467792  11 H  s                57      2.665695   7 H  s         
    30      2.556246   2 C  pz              118     -2.468693  13 H  s         
    21      2.317926   2 C  s                28      2.008062   2 C  px        
 
 Vector   55  Occ=0.000000D+00  E= 2.127625D-01
              MO Center= -1.1D-02,  5.2D-01, -2.1D-01, r^2= 7.5D+00
   Bfn.  Coefficient  Atom+Function         Bfn.  Coefficient  Atom+Function  
  ----- ------------  ---------------      ----- ------------  ---------------
    53      4.831645   6 C  py              118     -4.804229  13 H  s         
    66      2.125069   9 C  s                54      2.027519   6 C  pz        
    60      1.607724   8 H  s                93      1.409218  11 H  s         
    74      1.348325   9 C  py               21      1.317494   2 C  s         
    28      1.005623   2 C  px               73     -0.916606   9 C  px        
 
 Vector   56  Occ=0.000000D+00  E= 2.270051D-01
              MO Center= -6.9D-01,  9.5D-02,  5.4D-02, r^2= 8.3D+00
   Bfn.  Coefficient  Atom+Function         Bfn.  Coefficient  Atom+Function  
  ----- ------------  ---------------      ----- ------------  ---------------
    28      1.926724   2 C  px               52      1.914265   6 C  px        
    13      1.596531   1 C  px               57     -1.522289   7 H  s         
    36      1.260807   4 H  s                45     -1.235478   6 C  s         
    74     -1.122364   9 C  py               93     -1.118971  11 H  s         
    66      0.980309   9 C  s               113     -0.882864  12 Cl px        
 
 Vector   57  Occ=0.000000D+00  E= 2.292523D-01
              MO Center= -4.9D-01,  1.8D-01, -1.3D-01, r^2= 8.4D+00
   Bfn.  Coefficient  Atom+Function         Bfn.  Coefficient  Atom+Function  
  ----- ------------  ---------------      ----- ------------  ---------------
    52      5.073242   6 C  px               29      4.651514   2 C  py        
    15      3.042232   1 C  pz               74     -2.970299   9 C  py        
    53     -2.687296   6 C  py               60      2.700590   8 H  s         
    66     -2.504728   9 C  s                21      2.183196   2 C  s         
    36      1.997372   4 H  s                33     -1.877248   3 H  s         
 
 Vector   58  Occ=0.000000D+00  E= 2.313449D-01
              MO Center= -3.0D-01, -1.2D-01,  9.8D-02, r^2= 7.2D+00
   Bfn.  Coefficient  Atom+Function         Bfn.  Coefficient  Atom+Function  
  ----- ------------  ---------------      ----- ------------  ---------------
    74     -2.094571   9 C  py               93     -1.930109  11 H  s         
    52      1.906230   6 C  px               45      1.690750   6 C  s         
    30      1.339921   2 C  pz               28     -1.273149   2 C  px        
    54     -1.175679   6 C  pz               53     -1.119865   6 C  py        
    15      1.105088   1 C  pz              114      0.882504  12 Cl py        
 
 Vector   59  Occ=0.000000D+00  E= 2.631060D-01
              MO Center= -7.7D-01,  7.9D-01, -4.8D-01, r^2= 7.4D+00
   Bfn.  Coefficient  Atom+Function         Bfn.  Coefficient  Atom+Function  
  ----- ------------  ---------------      ----- ------------  ---------------
    57      2.448291   7 H  s               118     -2.438440  13 H  s         
    52      2.399247   6 C  px               36      2.040234   4 H  s         
    74     -1.994228   9 C  py               30      1.927388   2 C  pz        
    15      1.872437   1 C  pz               33     -1.610597   3 H  s         
    13      1.585510   1 C  px               45      1.562224   6 C  s         
 
 Vector   60  Occ=0.000000D+00  E= 2.683211D-01
              MO Center=  2.6D-01, -6.2D-01, -5.3D-01, r^2= 7.4D+00
   Bfn.  Coefficient  Atom+Function         Bfn.  Coefficient  Atom+Function  
  ----- ------------  ---------------      ----- ------------  ---------------
    29      2.960882   2 C  py               93     -2.508945  11 H  s         
    60      2.476099   8 H  s                53     -2.362274   6 C  py        
    57     -2.112374   7 H  s                30     -1.290635   2 C  pz        
    75     -1.290846   9 C  pz               92      1.114599  11 H  s         
    52      1.069126   6 C  px               45      0.980082   6 C  s         
 
 Vector   61  Occ=0.000000D+00  E= 2.772321D-01
              MO Center=  1.8D-01,  5.3D-01, -5.3D-01, r^2= 9.8D+00
   Bfn.  Coefficient  Atom+Function         Bfn.  Coefficient  Atom+Function  
  ----- ------------  ---------------      ----- ------------  ---------------
    66      3.697615   9 C  s                74      3.008387   9 C  py        
    45     -2.988932   6 C  s                52     -2.510291   6 C  px        
    93      1.728058  11 H  s                39      1.583692   5 H  s         
    33     -1.455734   3 H  s                13     -1.427589   1 C  px        
    75      1.426442   9 C  pz               14     -1.401615   1 C  py        
 
 Vector   62  Occ=0.000000D+00  E= 2.922272D-01
              MO Center=  1.2D+00, -3.2D-01, -4.0D-01, r^2= 6.4D+00
   Bfn.  Coefficient  Atom+Function         Bfn.  Coefficient  Atom+Function  
  ----- ------------  ---------------      ----- ------------  ---------------
    66      5.384731   9 C  s                53      2.595569   6 C  py        
    45     -1.900710   6 C  s                65     -1.818473   9 C  s         
    93     -1.403054  11 H  s               118     -1.295309  13 H  s         
    52     -1.281329   6 C  px               74     -1.111261   9 C  py        
    33      1.052789   3 H  s                15     -1.028487   1 C  pz        
 
 Vector   63  Occ=0.000000D+00  E= 2.926986D-01
              MO Center= -1.6D+00,  3.2D-01, -7.5D-01, r^2= 6.9D+00
   Bfn.  Coefficient  Atom+Function         Bfn.  Coefficient  Atom+Function  
  ----- ------------  ---------------      ----- ------------  ---------------
    39      2.603791   5 H  s                14     -1.949134   1 C  py        
    21      1.901581   2 C  s                60     -1.766732   8 H  s         
    36     -1.272993   4 H  s                20     -1.234325   2 C  s         
    59      1.055149   8 H  s                30     -1.046459   2 C  pz        
    52      0.941116   6 C  px               93      0.911518  11 H  s         
 
 Vector   64  Occ=0.000000D+00  E= 3.051825D-01
              MO Center= -8.1D-01,  3.2D-01, -6.0D-01, r^2= 1.0D+01
   Bfn.  Coefficient  Atom+Function         Bfn.  Coefficient  Atom+Function  
  ----- ------------  ---------------      ----- ------------  ---------------
    36      2.157511   4 H  s                66     -2.116683   9 C  s         
    28      1.770521   2 C  px               33     -1.202565   3 H  s         
    13      1.192806   1 C  px               74      1.081970   9 C  py        
    93      1.085766  11 H  s                 6      1.047685   1 C  s         
    65      1.036269   9 C  s                73      1.022164   9 C  px        
 
 Vector   65  Occ=0.000000D+00  E= 3.292665D-01
              MO Center= -6.2D-01,  8.7D-01, -3.6D-01, r^2= 1.0D+01
   Bfn.  Coefficient  Atom+Function         Bfn.  Coefficient  Atom+Function  
  ----- ------------  ---------------      ----- ------------  ---------------
    39      2.469362   5 H  s                14     -1.629977   1 C  py        
   118     -1.538491  13 H  s                28      1.507200   2 C  px        
    88     -1.290195  10 O  px               74     -1.279959   9 C  py        
   121      1.196858  14 H  s                33     -1.188314   3 H  s         
    53      1.161561   6 C  py               38     -1.058761   5 H  s         
 
 Vector   66  Occ=0.000000D+00  E= 3.361772D-01
              MO Center= -1.3D+00,  1.3D-01, -6.1D-01, r^2= 8.3D+00
   Bfn.  Coefficient  Atom+Function         Bfn.  Coefficient  Atom+Function  
  ----- ------------  ---------------      ----- ------------  ---------------
    66      3.053179   9 C  s                21      2.503912   2 C  s         
    52     -2.454779   6 C  px               74      1.911956   9 C  py        
    60     -1.644332   8 H  s                93      1.581413  11 H  s         
    45     -1.444117   6 C  s                28     -1.433954   2 C  px        
    20     -1.252783   2 C  s                35     -1.106708   4 H  s         
 
 Vector   67  Occ=0.000000D+00  E= 3.553262D-01
              MO Center= -2.3D+00,  5.7D-01,  1.7D-01, r^2= 6.4D+00
   Bfn.  Coefficient  Atom+Function         Bfn.  Coefficient  Atom+Function  
  ----- ------------  ---------------      ----- ------------  ---------------
     6      3.461875   1 C  s                66      2.896498   9 C  s         
    33     -2.295967   3 H  s                36     -2.279770   4 H  s         
    13     -2.125526   1 C  px                5     -2.100696   1 C  s         
    52     -1.457973   6 C  px               65     -0.941646   9 C  s         
    32      0.929404   3 H  s                39     -0.905996   5 H  s         
 
 Vector   68  Occ=0.000000D+00  E= 3.772968D-01
              MO Center=  4.5D-02,  3.0D-01, -3.2D-01, r^2= 7.4D+00
   Bfn.  Coefficient  Atom+Function         Bfn.  Coefficient  Atom+Function  
  ----- ------------  ---------------      ----- ------------  ---------------
    45      4.145850   6 C  s                52      3.580126   6 C  px        
    53      3.250712   6 C  py               74     -3.121609   9 C  py        
   118     -2.236136  13 H  s                93     -1.839917  11 H  s         
    29     -1.754603   2 C  py               21      1.694482   2 C  s         
    30      1.683735   2 C  pz               73     -1.453301   9 C  px        
 
 Vector   69  Occ=0.000000D+00  E= 4.270928D-01
              MO Center=  1.9D-01, -2.8D-03, -7.3D-01, r^2= 6.5D+00
   Bfn.  Coefficient  Atom+Function         Bfn.  Coefficient  Atom+Function  
  ----- ------------  ---------------      ----- ------------  ---------------
    66      5.571062   9 C  s                45     -4.803784   6 C  s         
    53      3.159216   6 C  py               44      2.266617   6 C  s         
    30      2.036036   2 C  pz               89      1.492325  10 O  py        
    29     -1.385718   2 C  py               57      1.258878   7 H  s         
    74     -1.180980   9 C  py               14      0.950706   1 C  py        
 
 Vector   70  Occ=0.000000D+00  E= 5.130191D-01
              MO Center=  1.9D+00, -5.8D-01, -8.6D-01, r^2= 5.1D+00
   Bfn.  Coefficient  Atom+Function         Bfn.  Coefficient  Atom+Function  
  ----- ------------  ---------------      ----- ------------  ---------------
    45      7.978352   6 C  s                66     -5.820317   9 C  s         
    74     -5.652080   9 C  py               73      3.796199   9 C  px        
    89      3.408437  10 O  py               93     -3.399391  11 H  s         
    52      3.360284   6 C  px               53     -2.883370   6 C  py        
    75     -2.196662   9 C  pz              118      1.445530  13 H  s         
 
 Vector   71  Occ=0.000000D+00  E= 5.345902D-01
              MO Center= -9.3D-01,  2.7D-01, -5.2D-01, r^2= 5.2D+00
   Bfn.  Coefficient  Atom+Function         Bfn.  Coefficient  Atom+Function  
  ----- ------------  ---------------      ----- ------------  ---------------
    21     11.332586   2 C  s                45    -10.542502   6 C  s         
    52      3.237129   6 C  px               20     -2.666337   2 C  s         
    44      2.624213   6 C  s                53      2.111659   6 C  py        
    30      1.953710   2 C  pz               28      1.871658   2 C  px        
   100      1.388602  12 Cl s                66      1.334887   9 C  s         
 
 Vector   72  Occ=0.000000D+00  E= 5.510139D-01
              MO Center= -2.1D+00,  7.5D-01, -2.1D-01, r^2= 5.2D+00
   Bfn.  Coefficient  Atom+Function         Bfn.  Coefficient  Atom+Function  
  ----- ------------  ---------------      ----- ------------  ---------------
     6     10.540990   1 C  s                21     -8.764695   2 C  s         
    66     -3.292425   9 C  s                45      2.896273   6 C  s         
    53     -2.616946   6 C  py                5     -2.516431   1 C  s         
    13      2.457918   1 C  px               28      2.016948   2 C  px        
    30     -1.894426   2 C  pz               20      1.566815   2 C  s         
 
 Vector   73  Occ=0.000000D+00  E= 7.265782D-01
              MO Center=  3.2D-01, -3.0D-01,  4.0D-01, r^2= 5.4D+00
   Bfn.  Coefficient  Atom+Function         Bfn.  Coefficient  Atom+Function  
  ----- ------------  ---------------      ----- ------------  ---------------
    21      4.207383   2 C  s                 6     -2.981310   1 C  s         
   100     -2.682622  12 Cl s                99      2.271918  12 Cl s         
    81      2.138127  10 O  s                53      2.124821   6 C  py        
    66      1.918452   9 C  s                30      1.863331   2 C  pz        
    73     -1.639746   9 C  px               45     -1.391011   6 C  s         
 
 Vector   74  Occ=0.000000D+00  E= 9.413891D-01
              MO Center=  1.7D+00, -1.5D-01, -2.9D-01, r^2= 4.6D+00
   Bfn.  Coefficient  Atom+Function         Bfn.  Coefficient  Atom+Function  
  ----- ------------  ---------------      ----- ------------  ---------------
    81      6.143912  10 O  s                66     -4.947482   9 C  s         
    74     -3.831208   9 C  py               52      2.789536   6 C  px        
    80     -2.792225  10 O  s               100      2.292893  12 Cl s         
    93     -2.151263  11 H  s                45      1.847115   6 C  s         
    88     -1.616689  10 O  px               75     -1.481532   9 C  pz        
 
 Vector   75  Occ=0.000000D+00  E= 1.070001D+00
              MO Center=  7.5D-01, -2.2D-01, -6.4D-01, r^2= 2.8D+00
   Bfn.  Coefficient  Atom+Function         Bfn.  Coefficient  Atom+Function  
  ----- ------------  ---------------      ----- ------------  ---------------
    70      1.467191   9 C  px               72     -1.426888   9 C  pz        
    49      1.120605   6 C  px               69      0.891372   9 C  pz        
    52     -0.855279   6 C  px               21     -0.804092   2 C  s         
     6      0.785871   1 C  s                75      0.723970   9 C  pz        
    30     -0.659078   2 C  pz               51     -0.555157   6 C  pz        
 
 Vector   76  Occ=0.000000D+00  E= 1.094895D+00
              MO Center=  7.2D-01, -2.2D-01, -5.2D-01, r^2= 2.7D+00
   Bfn.  Coefficient  Atom+Function         Bfn.  Coefficient  Atom+Function  
  ----- ------------  ---------------      ----- ------------  ---------------
    70      1.747531   9 C  px               49      1.419696   6 C  px        
    52     -1.379519   6 C  px               72      0.774249   9 C  pz        
    30     -0.757005   2 C  pz               67     -0.746741   9 C  px        
    69     -0.692507   9 C  pz               27      0.682984   2 C  pz        
    57     -0.670468   7 H  s                73     -0.665108   9 C  px        
 
 Vector   77  Occ=0.000000D+00  E= 1.178769D+00
              MO Center=  2.3D-01,  6.6D-02, -5.1D-01, r^2= 3.2D+00
   Bfn.  Coefficient  Atom+Function         Bfn.  Coefficient  Atom+Function  
  ----- ------------  ---------------      ----- ------------  ---------------
    71     -1.778769   9 C  py               53      1.677004   6 C  py        
   118     -1.617307  13 H  s                74      1.575026   9 C  py        
    50     -1.412706   6 C  py               93      1.347268  11 H  s         
    54      1.108235   6 C  pz               21     -0.869233   2 C  s         
    51     -0.853822   6 C  pz               68      0.833376   9 C  py        
 
 Vector   78  Occ=0.000000D+00  E= 1.198926D+00
              MO Center= -1.6D-01,  2.9D-01, -4.1D-01, r^2= 3.1D+00
   Bfn.  Coefficient  Atom+Function         Bfn.  Coefficient  Atom+Function  
  ----- ------------  ---------------      ----- ------------  ---------------
    51     -1.625246   6 C  pz               45      1.514144   6 C  s         
    53     -1.420736   6 C  py              100     -1.311469  12 Cl s         
    25     -1.276604   2 C  px               54      1.216498   6 C  pz        
    48      0.882196   6 C  pz               75     -0.822932   9 C  pz        
    99      0.815422  12 Cl s                66     -0.808353   9 C  s         
 
 Vector   79  Occ=0.000000D+00  E= 1.228930D+00
              MO Center= -1.2D+00,  3.6D-01, -6.0D-01, r^2= 3.5D+00
   Bfn.  Coefficient  Atom+Function         Bfn.  Coefficient  Atom+Function  
  ----- ------------  ---------------      ----- ------------  ---------------
    25      2.013691   2 C  px               28     -1.904008   2 C  px        
    52     -1.707843   6 C  px               13     -1.217616   1 C  px        
    10      1.144097   1 C  px              118      0.896096  13 H  s         
    12     -0.856882   1 C  pz               66      0.844798   9 C  s         
    49      0.804674   6 C  px               57      0.801531   7 H  s         
 
 Vector   80  Occ=0.000000D+00  E= 1.286803D+00
              MO Center= -1.3D+00,  3.6D-01, -6.4D-01, r^2= 3.8D+00
   Bfn.  Coefficient  Atom+Function         Bfn.  Coefficient  Atom+Function  
  ----- ------------  ---------------      ----- ------------  ---------------
    29      1.836336   2 C  py               60      1.727421   8 H  s         
    11     -1.388481   1 C  py               74     -1.333945   9 C  py        
    26     -1.316030   2 C  py               93     -1.312827  11 H  s         
    71      1.220582   9 C  py               39     -0.968276   5 H  s         
    52      0.952599   6 C  px               14      0.854173   1 C  py        
 
 Vector   81  Occ=0.000000D+00  E= 1.298174D+00
              MO Center= -1.5D+00,  5.4D-01, -5.4D-01, r^2= 3.4D+00
   Bfn.  Coefficient  Atom+Function         Bfn.  Coefficient  Atom+Function  
  ----- ------------  ---------------      ----- ------------  ---------------
    12      1.454905   1 C  pz               74      1.174345   9 C  py        
    15     -1.155170   1 C  pz               27      1.120714   2 C  pz        
    33      1.069093   3 H  s                30     -0.987056   2 C  pz        
    52     -0.974568   6 C  px               93      0.962079  11 H  s         
    57     -0.914534   7 H  s                71     -0.899582   9 C  py        
 
 Vector   82  Occ=0.000000D+00  E= 1.357699D+00
              MO Center= -7.2D-01,  3.8D-01, -3.2D-01, r^2= 5.1D+00
   Bfn.  Coefficient  Atom+Function         Bfn.  Coefficient  Atom+Function  
  ----- ------------  ---------------      ----- ------------  ---------------
    53      2.771569   6 C  py               66      2.122249   9 C  s         
    21      2.087600   2 C  s                45     -2.016427   6 C  s         
   118     -1.827624  13 H  s                10     -1.664332   1 C  px        
    70     -1.494155   9 C  px                6     -1.414012   1 C  s         
    29     -1.025922   2 C  py               36      1.012604   4 H  s         
 
 Vector   83  Occ=0.000000D+00  E= 1.393027D+00
              MO Center= -1.2D+00,  4.5D-01, -3.5D-01, r^2= 4.2D+00
   Bfn.  Coefficient  Atom+Function         Bfn.  Coefficient  Atom+Function  
  ----- ------------  ---------------      ----- ------------  ---------------
    53      1.513523   6 C  py              118     -1.364545  13 H  s         
    11      1.339448   1 C  py               52      1.211726   6 C  px        
    74     -1.213036   9 C  py               14     -1.204221   1 C  py        
    39      1.159163   5 H  s                71      1.097657   9 C  py        
    26     -1.067796   2 C  py               93     -1.064436  11 H  s         
 
 Vector   84  Occ=0.000000D+00  E= 1.416842D+00
              MO Center= -1.4D+00,  4.3D-01, -6.4D-01, r^2= 2.9D+00
   Bfn.  Coefficient  Atom+Function         Bfn.  Coefficient  Atom+Function  
  ----- ------------  ---------------      ----- ------------  ---------------
    27      1.725289   2 C  pz               30     -1.518291   2 C  pz        
    12     -1.284234   1 C  pz                6      1.121811   1 C  s         
    56      1.058821   7 H  s                57     -1.022376   7 H  s         
    24     -0.962813   2 C  pz               20     -0.886537   2 C  s         
    15      0.753251   1 C  pz               51     -0.704125   6 C  pz        
 
 Vector   85  Occ=0.000000D+00  E= 1.491994D+00
              MO Center= -8.3D-01,  3.3D-01, -5.8D-01, r^2= 3.7D+00
   Bfn.  Coefficient  Atom+Function         Bfn.  Coefficient  Atom+Function  
  ----- ------------  ---------------      ----- ------------  ---------------
    26      1.835598   2 C  py               29     -1.807378   2 C  py        
    50     -1.737434   6 C  py               53      1.390642   6 C  py        
    60     -1.222804   8 H  s               117      1.174465  13 H  s         
   118     -1.143784  13 H  s                11     -1.123279   1 C  py        
    59      1.082882   8 H  s                57      1.077111   7 H  s         
 
 Vector   86  Occ=0.000000D+00  E= 1.610045D+00
              MO Center= -8.7D-01,  3.7D-01, -5.4D-01, r^2= 3.4D+00
   Bfn.  Coefficient  Atom+Function         Bfn.  Coefficient  Atom+Function  
  ----- ------------  ---------------      ----- ------------  ---------------
    52      2.524756   6 C  px               49     -1.561549   6 C  px        
    25      1.300475   2 C  px               21      1.099810   2 C  s         
    13      1.092364   1 C  px               36      1.092660   4 H  s         
    28     -1.083915   2 C  px               65      0.924531   9 C  s         
     5      0.894327   1 C  s                10     -0.886764   1 C  px        
 
 Vector   87  Occ=0.000000D+00  E= 1.798072D+00
              MO Center=  2.6D+00,  8.2D-01, -5.4D-01, r^2= 1.3D+00
   Bfn.  Coefficient  Atom+Function         Bfn.  Coefficient  Atom+Function  
  ----- ------------  ---------------      ----- ------------  ---------------
   120      2.289229  14 H  s               119     -1.282721  14 H  s         
   121     -1.243499  14 H  s                53     -0.825513   6 C  py        
   118      0.825936  13 H  s                86     -0.806820  10 O  py        
    73      0.556391   9 C  px               83      0.545379  10 O  py        
    81     -0.501234  10 O  s                74      0.494865   9 C  py        
 
 Vector   88  Occ=0.000000D+00  E= 1.924293D+00
              MO Center= -7.5D-03, -3.9D-01, -8.0D-01, r^2= 5.2D+00
   Bfn.  Coefficient  Atom+Function         Bfn.  Coefficient  Atom+Function  
  ----- ------------  ---------------      ----- ------------  ---------------
    65      2.920449   9 C  s                66     -2.482203   9 C  s         
    64     -2.017874   9 C  s                20      1.499274   2 C  s         
    92     -1.410990  11 H  s                44     -1.389398   6 C  s         
    45      1.327144   6 C  s                19     -1.184172   2 C  s         
     5     -1.153542   1 C  s                 4      0.857587   1 C  s         
 
 Vector   89  Occ=0.000000D+00  E= 1.946996D+00
              MO Center= -5.4D-01, -1.0D-01, -4.4D-01, r^2= 5.8D+00
   Bfn.  Coefficient  Atom+Function         Bfn.  Coefficient  Atom+Function  
  ----- ------------  ---------------      ----- ------------  ---------------
    65      2.044677   9 C  s                 5      1.597192   1 C  s         
    64     -1.481752   9 C  s                66     -1.455054   9 C  s         
    20     -1.427904   2 C  s                 4     -1.259743   1 C  s         
    92     -1.142428  11 H  s                44      1.041121   6 C  s         
    19      1.010101   2 C  s                52      0.889854   6 C  px        
 
 Vector   90  Occ=0.000000D+00  E= 2.027696D+00
              MO Center= -1.3D+00,  8.0D-01, -1.5D-01, r^2= 4.5D+00
   Bfn.  Coefficient  Atom+Function         Bfn.  Coefficient  Atom+Function  
  ----- ------------  ---------------      ----- ------------  ---------------
    45      2.129703   6 C  s                44     -1.893429   6 C  s         
     5      1.784419   1 C  s                21     -1.703785   2 C  s         
     4     -1.503987   1 C  s                53     -1.370543   6 C  py        
    43      1.340626   6 C  s               117      1.111524  13 H  s         
    66     -1.098891   9 C  s                38     -0.996701   5 H  s         
 
 Vector   91  Occ=0.000000D+00  E= 2.053663D+00
              MO Center= -6.9D-01,  1.0D-01, -4.2D-01, r^2= 4.3D+00
   Bfn.  Coefficient  Atom+Function         Bfn.  Coefficient  Atom+Function  
  ----- ------------  ---------------      ----- ------------  ---------------
    20      1.547425   2 C  s                19     -1.370269   2 C  s         
    44      1.150099   6 C  s                59     -1.132416   8 H  s         
    56     -1.059634   7 H  s                43     -0.905515   6 C  s         
    45     -0.906879   6 C  s                53      0.862151   6 C  py        
   117     -0.857461  13 H  s               112     -0.738924  12 Cl pz        
 
 Vector   92  Occ=0.000000D+00  E= 2.093402D+00
              MO Center= -1.1D-01, -4.3D-01,  1.1D+00, r^2= 2.6D+00
   Bfn.  Coefficient  Atom+Function         Bfn.  Coefficient  Atom+Function  
  ----- ------------  ---------------      ----- ------------  ---------------
   111     -1.784601  12 Cl py              108      1.639691  12 Cl py        
    45      0.909239   6 C  s               114      0.804205  12 Cl py        
[...]
 Vector  101  Occ=0.000000D+00  E= 2.460695D+00
              MO Center=  1.3D+00,  2.4D-01, -5.6D-01, r^2= 3.3D+00
   Bfn.  Coefficient  Atom+Function         Bfn.  Coefficient  Atom+Function  
  ----- ------------  ---------------      ----- ------------  ---------------
    45      5.017961   6 C  s                44     -3.693501   6 C  s         
    43      2.445864   6 C  s                85      1.386716  10 O  px        
    74     -1.157862   9 C  py              117     -0.949246  13 H  s         
    82     -0.864881  10 O  px               66     -0.858699   9 C  s         
    88     -0.855225  10 O  px               93     -0.814031  11 H  s         
 
 Vector  102  Occ=0.000000D+00  E= 2.523472D+00
              MO Center= -1.6D+00,  3.9D-01, -7.0D-01, r^2= 2.9D+00
   Bfn.  Coefficient  Atom+Function         Bfn.  Coefficient  Atom+Function  
  ----- ------------  ---------------      ----- ------------  ---------------
    21      4.618726   2 C  s                20     -3.689325   2 C  s         
     5     -3.071374   1 C  s                 6      2.860145   1 C  s         
    19      2.583684   2 C  s                 4      2.256411   1 C  s         
    45     -1.953582   6 C  s                52      1.530351   6 C  px        
    28      1.138194   2 C  px               44      1.136559   6 C  s         
 
 Vector  103  Occ=0.000000D+00  E= 2.633487D+00
              MO Center= -1.8D+00,  5.5D-01, -4.8D-01, r^2= 3.4D+00
   Bfn.  Coefficient  Atom+Function         Bfn.  Coefficient  Atom+Function  
  ----- ------------  ---------------      ----- ------------  ---------------
    21     -6.563413   2 C  s                 6      6.336905   1 C  s         
     5     -4.021237   1 C  s                20      3.725602   2 C  s         
     4      2.719196   1 C  s                45      2.480629   6 C  s         
    19     -2.397401   2 C  s                66     -2.037935   9 C  s         
    30     -1.323540   2 C  pz               53     -1.137081   6 C  py        
 
 Vector  104  Occ=0.000000D+00  E= 2.724605D+00
              MO Center=  2.1D+00,  2.9D-03, -7.3D-01, r^2= 2.1D+00
   Bfn.  Coefficient  Atom+Function         Bfn.  Coefficient  Atom+Function  
  ----- ------------  ---------------      ----- ------------  ---------------
    45      4.127703   6 C  s                74     -2.466036   9 C  py        
    66     -2.149327   9 C  s                44     -2.066220   6 C  s         
    89      1.958493  10 O  py               86     -1.670746  10 O  py        
    93     -1.560964  11 H  s                52      1.547351   6 C  px        
    73      1.490131   9 C  px               65      1.304029   9 C  s         
 
 Vector  105  Occ=0.000000D+00  E= 4.362043D+00
              MO Center=  2.4D+00, -8.1D-02, -7.8D-01, r^2= 9.3D-01
   Bfn.  Coefficient  Atom+Function         Bfn.  Coefficient  Atom+Function  
  ----- ------------  ---------------      ----- ------------  ---------------
    80      5.085985  10 O  s                81     -4.097922  10 O  s         
    79     -3.914434  10 O  s                66      2.339320   9 C  s         
    74      1.892708   9 C  py               52     -1.447637   6 C  px        
    45     -1.170866   6 C  s                93      0.980980  11 H  s         
    78      0.815999  10 O  s                88      0.760927  10 O  px        
 
 Vector  106  Occ=0.000000D+00  E= 8.790193D+00
              MO Center=  1.5D-01, -5.3D-01,  1.4D+00, r^2= 4.5D-01
   Bfn.  Coefficient  Atom+Function         Bfn.  Coefficient  Atom+Function  
  ----- ------------  ---------------      ----- ------------  ---------------
    98      3.235567  12 Cl s                97     -2.693501  12 Cl s         
    99     -2.100694  12 Cl s               100      1.520216  12 Cl s         
    66     -0.601057   9 C  s                54     -0.470686   6 C  pz        
    96      0.459427  12 Cl s                81      0.402697  10 O  s         
    74     -0.362617   9 C  py              115     -0.357840  12 Cl pz        
 
 Vector  107  Occ=0.000000D+00  E= 1.128607D+01
              MO Center=  1.1D+00, -3.9D-01, -6.9D-01, r^2= 6.2D-01
   Bfn.  Coefficient  Atom+Function         Bfn.  Coefficient  Atom+Function  
  ----- ------------  ---------------      ----- ------------  ---------------
    64     -3.255089   9 C  s                63      3.160225   9 C  s         
    65      2.838583   9 C  s                66     -1.851330   9 C  s         
    62     -1.654431   9 C  s                43     -0.844372   6 C  s         
    42      0.822765   6 C  s                44      0.691644   6 C  s         
    52      0.446167   6 C  px               41     -0.427588   6 C  s         
 
 Vector  108  Occ=0.000000D+00  E= 1.146291D+01
              MO Center=  1.3D-02,  3.1D-01, -3.6D-01, r^2= 7.2D-01
   Bfn.  Coefficient  Atom+Function         Bfn.  Coefficient  Atom+Function  
  ----- ------------  ---------------      ----- ------------  ---------------
    43     -3.236444   6 C  s                42      3.042742   6 C  s         
    44      3.029161   6 C  s                45     -2.940683   6 C  s         
    41     -1.582362   6 C  s                66      1.572832   9 C  s         
    65     -1.006507   9 C  s                18      0.965220   2 C  s         
    19     -0.966070   2 C  s                64      0.942721   9 C  s         
 
 Vector  109  Occ=0.000000D+00  E= 1.152845D+01
              MO Center= -1.7D+00,  5.3D-01, -5.8D-01, r^2= 1.2D+00
   Bfn.  Coefficient  Atom+Function         Bfn.  Coefficient  Atom+Function  
  ----- ------------  ---------------      ----- ------------  ---------------
    19     -2.385748   2 C  s                 4     -2.278754   1 C  s         
    18      2.276303   2 C  s                 3      2.228594   1 C  s         
    20      2.148446   2 C  s                 5      1.944027   1 C  s         
    21     -1.878505   2 C  s                 6     -1.186198   1 C  s         
    17     -1.185495   2 C  s                45      1.172404   6 C  s         
 
 Vector  110  Occ=0.000000D+00  E= 1.153984D+01
              MO Center= -1.9D+00,  5.8D-01, -5.5D-01, r^2= 1.0D+00
   Bfn.  Coefficient  Atom+Function         Bfn.  Coefficient  Atom+Function  
  ----- ------------  ---------------      ----- ------------  ---------------
     4     -2.531388   1 C  s                 3      2.402479   1 C  s         
     5      2.329938   1 C  s                19      2.337284   2 C  s         
    21      2.294473   2 C  s                20     -2.233996   2 C  s         
    18     -2.177683   2 C  s                 6     -2.131614   1 C  s         
     2     -1.256672   1 C  s                17      1.135822   2 C  s         
 
 Vector  111  Occ=0.000000D+00  E= 2.163254D+01
              MO Center=  2.4D+00, -8.8D-02, -8.0D-01, r^2= 2.1D-01
   Bfn.  Coefficient  Atom+Function         Bfn.  Coefficient  Atom+Function  
  ----- ------------  ---------------      ----- ------------  ---------------
    78      3.326359  10 O  s                79     -3.235461  10 O  s         
    80      2.611720  10 O  s                77     -1.742544  10 O  s         
    81     -1.703188  10 O  s                66      0.916639   9 C  s         
    74      0.735708   9 C  py               52     -0.545406   6 C  px        
    45     -0.446015   6 C  s                93      0.390118  11 H  s         
 
 Vector  112  Occ=0.000000D+00  E= 4.053620D+01
              MO Center=  1.5D-01, -5.5D-01,  1.4D+00, r^2= 7.4D-02
   Bfn.  Coefficient  Atom+Function         Bfn.  Coefficient  Atom+Function  
  ----- ------------  ---------------      ----- ------------  ---------------
   102      2.377761  12 Cl py              105     -2.123972  12 Cl py        
   103      1.037028  12 Cl pz              106     -0.926364  12 Cl pz        
   108     -0.719626  12 Cl py              101      0.571936  12 Cl px        
   104     -0.510981  12 Cl px              111      0.324956  12 Cl py        
   109     -0.313683  12 Cl pz              107     -0.172650  12 Cl px        
 
 Vector  113  Occ=0.000000D+00  E= 4.054641D+01
              MO Center=  1.5D-01, -5.5D-01,  1.4D+00, r^2= 7.5D-02
   Bfn.  Coefficient  Atom+Function         Bfn.  Coefficient  Atom+Function  
  ----- ------------  ---------------      ----- ------------  ---------------
   101      2.086431  12 Cl px              104     -1.863071  12 Cl px        
   103     -1.632718  12 Cl pz              106      1.457385  12 Cl pz        
   107     -0.635030  12 Cl px              109      0.499660  12 Cl pz        
   110      0.293247  12 Cl px              112     -0.233124  12 Cl pz        
   102      0.210086  12 Cl py              105     -0.187432  12 Cl py        
 
 Vector  114  Occ=0.000000D+00  E= 4.055301D+01
              MO Center=  1.5D-01, -5.5D-01,  1.4D+00, r^2= 7.4D-02
   Bfn.  Coefficient  Atom+Function         Bfn.  Coefficient  Atom+Function  
  ----- ------------  ---------------      ----- ------------  ---------------
   103      1.823366  12 Cl pz              106     -1.627196  12 Cl pz        
   101      1.543132  12 Cl px              104     -1.377727  12 Cl px        
   102     -1.166554  12 Cl py              105      1.041138  12 Cl py        
   109     -0.560388  12 Cl pz              107     -0.470843  12 Cl px        
   108      0.357953  12 Cl py              112      0.267762  12 Cl pz        
 
 Vector  115  Occ=0.000000D+00  E= 6.222145D+01
              MO Center=  1.1D+00, -3.8D-01, -6.8D-01, r^2= 3.3D-01
   Bfn.  Coefficient  Atom+Function         Bfn.  Coefficient  Atom+Function  
  ----- ------------  ---------------      ----- ------------  ---------------
    62      2.819390   9 C  s                63     -2.148044   9 C  s         
    61     -1.667306   9 C  s                64      1.436015   9 C  s         
    65     -1.185169   9 C  s                41      0.799314   6 C  s         
    66      0.767091   9 C  s                42     -0.611229   6 C  s         
    40     -0.472849   6 C  s                43      0.407181   6 C  s         
 
 Vector  116  Occ=0.000000D+00  E= 6.240022D+01
              MO Center= -1.2D-02,  3.0D-01, -3.9D-01, r^2= 5.0D-01
   Bfn.  Coefficient  Atom+Function         Bfn.  Coefficient  Atom+Function  
  ----- ------------  ---------------      ----- ------------  ---------------
    41      2.654607   6 C  s                42     -2.037403   6 C  s         
    40     -1.565077   6 C  s                43      1.407137   6 C  s         
    44     -1.246556   6 C  s                45      1.204247   6 C  s         
    17      0.989757   2 C  s                62     -0.841593   9 C  s         
    18     -0.757122   2 C  s                66     -0.688314   9 C  s         
 
 Vector  117  Occ=0.000000D+00  E= 6.247118D+01
              MO Center= -1.8D+00,  5.8D-01, -5.2D-01, r^2= 9.0D-01
   Bfn.  Coefficient  Atom+Function         Bfn.  Coefficient  Atom+Function  
  ----- ------------  ---------------      ----- ------------  ---------------
     2      2.143996   1 C  s                17      1.863322   2 C  s         
     3     -1.636952   1 C  s                18     -1.428268   2 C  s         
     1     -1.266815   1 C  s                16     -1.099274   2 C  s         
     4      1.091331   1 C  s                19      0.972535   2 C  s         
     5     -0.889012   1 C  s                20     -0.828454   2 C  s         
 
 Vector  118  Occ=0.000000D+00  E= 6.249214D+01
              MO Center= -1.8D+00,  5.3D-01, -5.9D-01, r^2= 8.3D-01
   Bfn.  Coefficient  Atom+Function         Bfn.  Coefficient  Atom+Function  
  ----- ------------  ---------------      ----- ------------  ---------------
    17     -2.055924   2 C  s                 2      2.013801   1 C  s         
    18      1.574741   2 C  s                 3     -1.537267   1 C  s         
    16      1.212808   2 C  s                 1     -1.189679   1 C  s         
    19     -1.097638   2 C  s                 4      1.053774   1 C  s         
    21     -1.022131   2 C  s                20      0.994865   2 C  s         
 
 Vector  119  Occ=0.000000D+00  E= 1.175702D+02
              MO Center=  2.4D+00, -8.7D-02, -8.0D-01, r^2= 4.6D-02
   Bfn.  Coefficient  Atom+Function         Bfn.  Coefficient  Atom+Function  
  ----- ------------  ---------------      ----- ------------  ---------------
    77      2.970586  10 O  s                78     -2.276103  10 O  s         
    76     -1.756202  10 O  s                79      1.442063  10 O  s         
    80     -1.098305  10 O  s                81      0.718014  10 O  s         
    66     -0.392672   9 C  s                74     -0.313234   9 C  py        
    52      0.233334   6 C  px               45      0.190866   6 C  s         
 
 Vector  120  Occ=0.000000D+00  E= 1.228217D+02
              MO Center=  1.5D-01, -5.5D-01,  1.4D+00, r^2= 3.9D-02
   Bfn.  Coefficient  Atom+Function         Bfn.  Coefficient  Atom+Function  
  ----- ------------  ---------------      ----- ------------  ---------------
    96      2.263860  12 Cl s                97     -1.718563  12 Cl s         
    95     -1.608536  12 Cl s                98      1.159381  12 Cl s         
    99     -0.530906  12 Cl s               100      0.374766  12 Cl s         
    66     -0.143477   9 C  s                54     -0.112875   6 C  pz        
    81      0.098967  10 O  s                94     -0.099117  12 Cl s         
 
 Vector  121  Occ=0.000000D+00  E= 8.993712D+02
              MO Center=  1.5D-01, -5.5D-01,  1.4D+00, r^2= 6.9D-03
   Bfn.  Coefficient  Atom+Function         Bfn.  Coefficient  Atom+Function  
  ----- ------------  ---------------      ----- ------------  ---------------
    95      2.342542  12 Cl s                94     -1.742246  12 Cl s         
    96     -1.316735  12 Cl s                97      0.700878  12 Cl s         
    98     -0.452250  12 Cl s                99      0.206263  12 Cl s         
   100     -0.145912  12 Cl s                66      0.054454   9 C  s         
    54      0.043994   6 C  pz               81     -0.035334  10 O  s         
 

 center of mass
 --------------
 x =   0.12339744 y =  -0.07554568 z =   0.10950086

 moments of inertia (a.u.)
 ------------------
         514.470949905235         171.242411485909          38.203993971862
         171.242411485909        1236.269816223506         100.482279432188
          38.203993971862         100.482279432188         976.594792468227
 
     Multipole analysis of the density
     ---------------------------------
 
     L   x y z        total         alpha         beta         nuclear
     -   - - -        -----         -----         ----         -------
     0   0 0 0      1.000000    -28.000000    -28.000000     57.000000
 
     1   1 0 0      0.903093      0.451546      0.451546      0.000000
     1   0 1 0      0.678095      0.339048      0.339048      0.000000
     1   0 0 1     -1.065877     -0.532938     -0.532938      0.000000
 
     2   2 0 0    -20.798426   -254.145741   -254.145741    487.493056
     2   1 1 0      2.029371     49.766760     49.766760    -97.504149
     2   1 0 1     -0.413677      7.064034      7.064034    -14.541744
     2   0 2 0    -26.928049    -54.772082    -54.772082     82.616114
     2   0 1 1     -0.370700     24.293421     24.293421    -48.957542
     2   0 0 2    -28.340220   -116.354976   -116.354976    204.369731
 

 Task  times  cpu:        5.8s     wall:        6.1s
 
 
                                NWChem Input Module
                                -------------------
 
 
 Summary of allocated global arrays
-----------------------------------
  No active global arrays



                         GA Statistics for process    0
                         ------------------------------

       create   destroy   get      put      acc     scatter   gather  read&inc
calls:  188      188     2.38e+04 1767     1.63e+04    0        0      513     
number of processes/call 1.15e+01 4.27e+01 9.04e+00 0.00e+00 0.00e+00
bytes total:             5.10e+07 5.66e+06 2.63e+07 0.00e+00 0.00e+00 4.10e+03
bytes remote:            4.36e+07 3.50e+06 2.31e+07 0.00e+00 0.00e+00 0.00e+00
Max memory consumed for GA by this process: 491896 bytes
 
 
 
                                     CITATION
                                     --------
                Please cite the following reference when publishing
                           results obtained with NWChem:
 
          E. Apr, E. J. Bylaska, W. A. de Jong, N. Govind, K. Kowalski,
       T. P. Straatsma, M. Valiev, H. J. J. van Dam, Y. Alexeev, J. Anchell,
       V. Anisimov, F. W. Aquino, R. Atta-Fynn, J. Autschbach, N. P. Bauman,
     J. C. Becca, D. E. Bernholdt, K. Bhaskaran-Nair, S. Bogatko, P. Borowski,
        J. Boschen, J. Brabec, A. Bruner, E. Caut, Y. Chen, G. N. Chuev,
      C. J. Cramer, J. Daily, M. J. O. Deegan, T. H. Dunning Jr., M. Dupuis,
   K. G. Dyall, G. I. Fann, S. A. Fischer, A. Fonari, H. Frchtl, L. Gagliardi,
      J. Garza, N. Gawande, S. Ghosh, K. Glaesemann, A. W. Gtz, J. Hammond,
       V. Helms, E. D. Hermes, K. Hirao, S. Hirata, M. Jacquelin, L. Jensen,
   B. G. Johnson, H. Jnsson, R. A. Kendall, M. Klemm, R. Kobayashi, V. Konkov,
      S. Krishnamoorthy, M. Krishnan, Z. Lin, R. D. Lins, R. J. Littlefield,
      A. J. Logsdail, K. Lopata, W. Ma, A. V. Marenich, J. Martin del Campo,
   D. Mejia-Rodriguez, J. E. Moore, J. M. Mullin, T. Nakajima, D. R. Nascimento,
    J. A. Nichols, P. J. Nichols, J. Nieplocha, A. Otero-de-la-Roza, B. Palmer,
    A. Panyala, T. Pirojsirikul, B. Peng, R. Peverati, J. Pittner, L. Pollack,
   R. M. Richard, P. Sadayappan, G. C. Schatz, W. A. Shelton, D. W. Silverstein,
   D. M. A. Smith, T. A. Soares, D. Song, M. Swart, H. L. Taylor, G. S. Thomas,
            V. Tipparaju, D. G. Truhlar, K. Tsemekhman, T. Van Voorhis,
     . Vzquez-Mayagoitia, P. Verma, O. Villa, A. Vishnu, K. D. Vogiatzis,
        D. Wang, J. H. Weare, M. J. Williamson, T. L. Windus, K. Woliski,
        A. T. Wong, Q. Wu, C. Yang, Q. Yu, M. Zacharias, Z. Zhang, Y. Zhao,
                                and R. J. Harrison
                        "NWChem: Past, present, and future
                         J. Chem. Phys. 152, 184102 (2020)
                               doi:10.1063/5.0004997
 
                                      AUTHORS
                                      -------
     E. Apra, E. J. Bylaska, N. Govind, K. Kowalski, M. Valiev, W. A. de Jong,
      T. P. Straatsma, H. J. J. van Dam, D. Wang, T. L. Windus, N. P. Bauman,
       A. Panyala, J. Hammond, J. Autschbach, K. Bhaskaran-Nair, J. Brabec,
    K. Lopata, S. A. Fischer, S. Krishnamoorthy, M. Jacquelin, W. Ma, M. Klemm,
       O. Villa, Y. Chen, V. Anisimov, F. Aquino, S. Hirata, M. T. Hackler,
           Eric Hermes, L. Jensen, J. E. Moore, J. C. Becca, V. Konjkov,
            D. Mejia-Rodriguez, T. Risthaus, M. Malagoli, A. Marenich,
   A. Otero-de-la-Roza, J. Mullin, P. Nichols, R. Peverati, J. Pittner, Y. Zhao,
        P.-D. Fan, A. Fonari, M. J. Williamson, R. J. Harrison, J. R. Rehr,
      M. Dupuis, D. Silverstein, D. M. A. Smith, J. Nieplocha, V. Tipparaju,
      M. Krishnan, B. E. Van Kuiken, A. Vazquez-Mayagoitia, M. Swart, Q. Wu,
   T. Van Voorhis, A. A. Auer, M. Nooijen, L. D. Crosby, E. Brown, G. Cisneros,
     G. I. Fann, H. Fruchtl, J. Garza, K. Hirao, R. A. Kendall, J. A. Nichols,
       K. Tsemekhman, K. Wolinski, J. Anchell, D. E. Bernholdt, P. Borowski,
       T. Clark, D. Clerc, H. Dachsel, M. J. O. Deegan, K. Dyall, D. Elwood,
      E. Glendening, M. Gutowski, A. C. Hess, J. Jaffe, B. G. Johnson, J. Ju,
        R. Kobayashi, R. Kutteh, Z. Lin, R. Littlefield, X. Long, B. Meng,
      T. Nakajima, S. Niu, L. Pollack, M. Rosing, K. Glaesemann, G. Sandrone,
      M. Stave, H. Taylor, G. Thomas, J. H. van Lenthe, A. T. Wong, Z. Zhang.

 Total times  cpu:        5.8s     wall:        6.2s
