 
             Northwest Computational Chemistry Package (NWChem) 7.0.0
             --------------------------------------------------------
 
 
                    Environmental Molecular Sciences Laboratory
                       Pacific Northwest National Laboratory
                                Richland, WA 99352
 
                              Copyright (c) 1994-2020
                       Pacific Northwest National Laboratory
                            Battelle Memorial Institute
 
             NWChem is an open-source computational chemistry package
                        distributed under the terms of the
                      Educational Community License (ECL) 2.0
             A copy of the license is included with this distribution
                              in the LICENSE.TXT file
 
                                  ACKNOWLEDGMENT
                                  --------------

            This software and its documentation were developed at the
            EMSL at Pacific Northwest National Laboratory, a multiprogram
            national laboratory, operated for the U.S. Department of Energy
            by Battelle under Contract Number DE-AC05-76RL01830. Support
            for this work was provided by the Department of Energy Office
            of Biological and Environmental Research, Office of Basic
            Energy Sciences, and the Office of Advanced Scientific Computing.


                                NWChem Input Module
                                -------------------
 
 
 Summary of "ao basis" -> "" (spherical)
 ------------------------------------------------------------------------------
       Tag                 Description            Shells   Functions and Types
 ---------------- ------------------------------  ------  ---------------------
 *                        ahlrichs_vtz                on all atoms 



 Scaling coordinates for geometry "geometry" by  1.889725989
 (inverse scale =  0.529177249)

 
 
                             Geometry "geometry" -> ""
                             -------------------------
 
 Output coordinates in angstroms (scale by  1.889725989 to convert to a.u.)
 
  No.       Tag          Charge          X              Y              Z
 ---- ---------------- ---------- -------------- -------------- --------------
    1 C                    6.0000     0.47946527     0.07726535     0.88294437
    2 C                    6.0000     1.30695751    -0.39000369    -0.23179355
    3 O                    8.0000     0.87890589    -0.55339524    -1.43353836
    4 H                    1.0000     2.36594219    -0.63215313    -0.09628017
    5 Cl                  17.0000    -1.25933833     0.40827247     0.36531667
    6 H                    1.0000     0.91523325     0.99842931     1.31226376
    7 H                    1.0000     0.48317776    -0.67536312     1.69308480
    8 H                    1.0000    -0.10538533    -0.32795308    -1.55804969
 
      Atomic Mass 
      ----------- 
 
      C                 12.000000
      O                 15.994910
      H                  1.007825
      Cl                34.968850
 

 Effective nuclear repulsion energy (a.u.)     156.0791150851

            Nuclear Dipole moment (a.u.) 
            ----------------------------
        X                 Y               Z
 ---------------- ---------------- ----------------
     0.0000000000    -0.0000000000     0.0000000000
 
 
            XYZ format geometry
            -------------------
     8
 geometry
 C                     0.47946527     0.07726535     0.88294437
 C                     1.30695751    -0.39000369    -0.23179355
 O                     0.87890589    -0.55339524    -1.43353836
 H                     2.36594219    -0.63215313    -0.09628017
 Cl                   -1.25933833     0.40827247     0.36531667
 H                     0.91523325     0.99842931     1.31226376
 H                     0.48317776    -0.67536312     1.69308480
 H                    -0.10538533    -0.32795308    -1.55804969
 
 ==============================================================================
                                internuclear distances
 ------------------------------------------------------------------------------
       center one      |      center two      | atomic units |  angstroms
 ------------------------------------------------------------------------------
    2 C                |   1 C                |     2.76813  |     1.46483
    3 O                |   2 C                |     2.43042  |     1.28612
    4 H                |   2 C                |     2.06875  |     1.09474
    5 Cl               |   1 C                |     3.48497  |     1.84416
    6 H                |   1 C                |     2.08962  |     1.10578
    7 H                |   1 C                |     2.08966  |     1.10580
    8 H                |   3 O                |     1.92266  |     1.01743
 ------------------------------------------------------------------------------
                         number of included internuclear distances:          7
 ==============================================================================



 ==============================================================================
                                 internuclear angles
 ------------------------------------------------------------------------------
        center 1       |       center 2       |       center 3       |  degrees
 ------------------------------------------------------------------------------
    2 C                |   1 C                |   5 Cl               |   112.10
    2 C                |   1 C                |   6 H                |   109.79
    2 C                |   1 C                |   7 H                |   109.79
    5 Cl               |   1 C                |   6 H                |   109.33
    5 Cl               |   1 C                |   7 H                |   109.33
    6 H                |   1 C                |   7 H                |   106.33
    1 C                |   2 C                |   3 O                |   124.30
    1 C                |   2 C                |   4 H                |   121.52
    3 O                |   2 C                |   4 H                |   114.17
    2 C                |   3 O                |   8 H                |   114.09
 ------------------------------------------------------------------------------
                            number of included internuclear angles:         10
 ==============================================================================



                              Aldehyde and Ketone set
                              -----------------------
 
                                 NWChem DFT Module
                                 -----------------
 
 
                              Aldehyde and Ketone set
 
 
                      Basis "ao basis" -> "ao basis" (spherical)
                      -----
  C (Carbon)
  ----------
            Exponent  Coefficients 
       -------------- ---------------------------------------------------------
  1 S  8.50603840E+03  0.000534
  1 S  1.27573290E+03  0.004125
  1 S  2.90311870E+02  0.021171
  1 S  8.20562000E+01  0.082418
  1 S  2.64796410E+01  0.240129
 
  2 S  9.24145850E+00  1.000000
 
  3 S  3.36435300E+00  1.000000
 
  4 S  8.71741640E-01  1.000000
 
  5 S  3.63523520E-01  1.000000
 
  6 S  1.28731350E-01  1.000000
 
  7 P  3.47094960E+01  0.005330
  7 P  7.95908830E+00  0.035866
  7 P  2.37869720E+00  0.142003
  7 P  8.15400650E-01  0.342031
 
  8 P  2.89537850E-01  1.000000
 
  9 P  1.00847540E-01  1.000000
 
  O (Oxygen)
  ----------
            Exponent  Coefficients 
       -------------- ---------------------------------------------------------
  1 S  1.59026475E+04  0.000515
  1 S  2.38495378E+03  0.003982
  1 S  5.42719572E+02  0.020477
  1 S  1.53404079E+02  0.080262
  1 S  4.95457161E+01  0.237668
 
  2 S  1.73396499E+01  1.000000
 
  3 S  6.33033553E+00  1.000000
 
  4 S  1.69958822E+00  1.000000
 
  5 S  6.89544913E-01  1.000000
 
  6 S  2.39360282E-01  1.000000
 
  7 P  6.32705240E+01  0.006071
  7 P  1.46233123E+01  0.041948
  7 P  4.44895180E+00  0.161569
  7 P  1.52815132E+00  0.356828
 
  8 P  5.29973159E-01  1.000000
 
  9 P  1.75094460E-01  1.000000
 
  H (Hydrogen)
  ------------
            Exponent  Coefficients 
       -------------- ---------------------------------------------------------
  1 S  3.40613410E+01  0.006025
  1 S  5.12357460E+00  0.045021
  1 S  1.16466260E+00  0.201897
 
  2 S  3.27230410E-01  1.000000
 
  3 S  1.03072410E-01  1.000000
 
  Cl (Chlorine)
  -------------
            Exponent  Coefficients 
       -------------- ---------------------------------------------------------
  1 S  1.17805790E+05  0.000242
  1 S  1.76602650E+04  0.001874
  1 S  4.01859730E+03  0.009736
  1 S  1.13622310E+03  0.039495
  1 S  3.68120620E+02  0.127972
 
  2 S  1.30861540E+02  1.000000
 
  3 S  5.04790110E+01  0.428741
  3 S  2.09168050E+01  0.196685
 
  4 S  6.35313880E+00  1.000000
 
  5 S  2.49480140E+00  1.000000
 
  6 S  5.43359480E-01  1.000000
 
  7 S  1.94343660E-01  1.000000
 
  8 P  6.81068790E+02  0.002366
  8 P  1.61113590E+02  0.018941
  8 P  5.13866370E+01  0.087845
  8 P  1.89585120E+01  0.257074
  8 P  3.00351580E+00  0.371524
 
  9 P  7.45652930E+00  1.000000
 
 10 P  1.06093610E+00  1.000000
 
 11 P  3.94520230E-01  1.000000
 
 12 P  1.33232790E-01  1.000000
 


 Summary of "ao basis" -> "ao basis" (spherical)
 ------------------------------------------------------------------------------
       Tag                 Description            Shells   Functions and Types
 ---------------- ------------------------------  ------  ---------------------
 C                        ahlrichs vtz               9       15   6s3p
 O                        ahlrichs vtz               9       15   6s3p
 H                        ahlrichs vtz               3        3   3s
 Cl                       ahlrichs vtz              12       22   7s5p




 Summary of "ao basis" -> "ao basis" (spherical)
 ------------------------------------------------------------------------------
       Tag                 Description            Shells   Functions and Types
 ---------------- ------------------------------  ------  ---------------------
 C                        ahlrichs vtz               9       15   6s3p
 O                        ahlrichs vtz               9       15   6s3p
 H                        ahlrichs vtz               3        3   3s
 Cl                       ahlrichs vtz              12       22   7s5p


  Caching 1-el integrals 
 
            General Information
            -------------------
          SCF calculation type: DFT
          Wavefunction type:  closed shell.
          No. of atoms     :     8
          No. of electrons :    40
           Alpha electrons :    20
            Beta electrons :    20
          Charge           :     1
          Spin multiplicity:     1
          Use of symmetry is: off; symmetry adaption is: off
          Maximum number of iterations: ***
          This is a Direct SCF calculation.
          AO basis - number of functions:    79
                     number of shells:    51
          Convergence on energy requested:  1.00D-08
          Convergence on density requested:  1.00D-07
          Convergence on gradient requested:  1.00D-06
 
              XC Information
              --------------
                        PBE96 Method XC Functional
          PerdewBurkeErnzerhof Exchange Functional  1.000          
            Perdew 1991 LDA Correlation Functional  1.000 local    
           PerdewBurkeErnz. Correlation Functional  1.000 non-local
 
             Grid Information
             ----------------
          Grid used for XC integration:  fine      
          Radial quadrature: Mura-Knowles        
          Angular quadrature: Lebedev. 
          Tag              B.-S. Rad. Rad. Pts. Rad. Cut. Ang. Pts.
          ---              ---------- --------- --------- ---------
          C                   0.70       70           9.0       590
          O                   0.60       70          10.0       590
          H                   0.35       60          11.0       590
          Cl                  1.00      123          11.0       770
          Grid pruning is: on 
          Number of quadrature shells:   573
          Spatial weights used:  Erf1
 
          Convergence Information
          -----------------------
          Convergence aids based upon iterative change in 
          total energy or number of iterations. 
          Levelshifting, if invoked, occurs when the 
          HOMO/LUMO gap drops below (HL_TOL):  1.00D-02
          DIIS, if invoked, will attempt to extrapolate 
          using up to (NFOCK): 10 stored Fock matrices.

                    Damping( 0%)  Levelshifting(0.5)       DIIS
                  --------------- ------------------- ---------------
          dE  on:    start            ASAP                start   
          dE off:    2 iters        *** iters           *** iters 

 
      Screening Tolerance Information
      -------------------------------
          Density screening/tol_rho:  1.00D-12
          AO Gaussian exp screening on grid/accAOfunc:  18
          CD Gaussian exp screening on grid/accCDfunc:  20
          XC Gaussian exp screening on grid/accXCfunc:  20
          Schwarz screening/accCoul:  1.00D-12

      Dispersion Parameters
      ---------------------

           DFT-D3BJ Model   
          s6 scale factor  :        1.000000000000
          s8 scale factor  :        0.787500000000
          a1 parameter     :        0.428900000000
          a2 parameter     :        4.440700000000
              vdW contrib  :       -0.005470802707


 Forcing the number of linearly dependent vectors to be  0
 
      Superposition of Atomic Density Guess
      -------------------------------------
 
 Sum of atomic energies:        -611.60665470
   Time after variat. SCF:      0.2
   Time prior to 1st pass:      0.2

 Grid_pts file          = ./09_ClCH2CHOH.gridpts.00
 Record size in doubles =  12289        No. of grid_pts per rec  =   3070
 Max. records in memory =     12        Max. recs in file   =  67550051

 Grid integrated density:      41.000001478450
 Requested integration accuracy:   0.10E-06

           Memory utilization after 1st SCF pass: 
           Heap Space remaining (MW):        0.00                  96
          Stack Space remaining (MW):      288.36           288357716

   convergence    iter        energy       DeltaE   RMS-Dens  Diis-err    time
 ---------------- ----- ----------------- --------- --------- ---------  ------
 d= 0,ls=0.0,diis     1   -614.2189304904 -7.70D+02  2.76D-02  4.04D+01     0.3
 d= 0,ls=0.0,diis     2   -613.3256045745  8.93D-01  1.17D-02  3.16D-01     0.5
 d= 0,ls=0.0,diis     3   -613.2485408559  7.71D-02  5.98D-03  1.14D+00     0.6
 d= 0,ls=0.0,diis     4   -613.3517120927 -1.03D-01  2.50D-03  8.62D-02     0.7
 d= 0,ls=0.0,diis     5   -613.3597935873 -8.08D-03  1.02D-03  1.47D-02     0.8
 d= 0,ls=0.0,diis     6   -613.3615360617 -1.74D-03  2.34D-04  3.80D-04     1.0
 d= 0,ls=0.0,diis     7   -613.3615809392 -4.49D-05  7.81D-05  4.41D-05     1.1
 d= 0,ls=0.0,diis     8   -613.3615854461 -4.51D-06  2.99D-05  5.79D-06     1.2
 d= 0,ls=0.0,diis     9   -613.3615863226 -8.76D-07  4.45D-06  1.19D-07     1.4
 d= 0,ls=0.0,diis    10   -613.3615863400 -1.75D-08  1.29D-06  1.40D-08     1.5
 d= 0,ls=0.0,diis    11   -613.3615863421 -2.06D-09  1.00D-07  6.63D-11     1.6
 d= 0,ls=0.0,diis    12   -613.3615863421 -9.32D-12  7.74D-09  1.91D-13     1.7


         Total DFT energy =     -613.361586342094
      One electron energy =    -1143.034965437480
           Coulomb energy =      421.988386878135
          Exchange energy =      -46.968304938903
       Correlation energy =       -1.420347126204
 Nuclear repulsion energy =      156.079115085063

    Dispersion correction =       -0.005470802707

 Numeric. integr. density =       40.000000627105

     Total iterative time =      1.5s


 
                       DFT Final Molecular Orbital Analysis
                       ------------------------------------
 
 Vector    1  Occ=2.000000D+00  E=-1.009021D+02
              MO Center= -1.3D+00,  4.1D-01,  3.7D-01, r^2= 3.1D-03
   Bfn.  Coefficient  Atom+Function         Bfn.  Coefficient  Atom+Function  
  ----- ------------  ---------------      ----- ------------  ---------------
    51      0.598198  5 Cl s                 50      0.326070  5 Cl s          
    49      0.184384  5 Cl s          
 
 Vector    2  Occ=2.000000D+00  E=-1.912415D+01
              MO Center=  8.8D-01, -5.5D-01, -1.4D+00, r^2= 1.5D-02
   Bfn.  Coefficient  Atom+Function         Bfn.  Coefficient  Atom+Function  
  ----- ------------  ---------------      ----- ------------  ---------------
    32      0.424639  3 O  s                 33      0.366223  3 O  s          
    31      0.299517  3 O  s                 34      0.055261  3 O  s          
 
 Vector    3  Occ=2.000000D+00  E=-1.029835D+01
              MO Center=  1.3D+00, -3.9D-01, -2.3D-01, r^2= 2.8D-02
   Bfn.  Coefficient  Atom+Function         Bfn.  Coefficient  Atom+Function  
  ----- ------------  ---------------      ----- ------------  ---------------
    17      0.424204  2 C  s                 18      0.359730  2 C  s          
    16      0.308797  2 C  s                 19      0.056855  2 C  s          
 
 Vector    4  Occ=2.000000D+00  E=-1.021619D+01
              MO Center=  4.8D-01,  7.7D-02,  8.8D-01, r^2= 2.8D-02
   Bfn.  Coefficient  Atom+Function         Bfn.  Coefficient  Atom+Function  
  ----- ------------  ---------------      ----- ------------  ---------------
     2      0.424309  1 C  s                  3      0.359501  1 C  s          
     1      0.308848  1 C  s                  4      0.057210  1 C  s          
 
 Vector    5  Occ=2.000000D+00  E=-9.405721D+00
              MO Center= -1.3D+00,  4.1D-01,  3.7D-01, r^2= 6.6D-02
   Bfn.  Coefficient  Atom+Function         Bfn.  Coefficient  Atom+Function  
  ----- ------------  ---------------      ----- ------------  ---------------
    53      0.583588  5 Cl s                 52      0.522935  5 Cl s          
    51     -0.293191  5 Cl s                 50     -0.113720  5 Cl s          
    54      0.059119  5 Cl s                 49     -0.054083  5 Cl s          
    55     -0.025390  5 Cl s          
 
 Vector    6  Occ=2.000000D+00  E=-7.233844D+00
              MO Center= -1.3D+00,  4.1D-01,  3.6D-01, r^2= 5.8D-02
   Bfn.  Coefficient  Atom+Function         Bfn.  Coefficient  Atom+Function  
  ----- ------------  ---------------      ----- ------------  ---------------
    56      0.533073  5 Cl px                59      0.402618  5 Cl px         
    58      0.154219  5 Cl pz                61      0.116480  5 Cl pz         
    57     -0.102509  5 Cl py                60     -0.077423  5 Cl py         
    62      0.067781  5 Cl px         
 
 Vector    7  Occ=2.000000D+00  E=-7.219609D+00
              MO Center= -1.3D+00,  4.1D-01,  3.7D-01, r^2= 5.8D-02
   Bfn.  Coefficient  Atom+Function         Bfn.  Coefficient  Atom+Function  
  ----- ------------  ---------------      ----- ------------  ---------------
    58      0.529457  5 Cl pz                61      0.399707  5 Cl pz         
    57      0.152629  5 Cl py                56     -0.123799  5 Cl px         
    60      0.115225  5 Cl py                59     -0.093459  5 Cl px         
    64      0.066196  5 Cl pz         
 
 Vector    8  Occ=2.000000D+00  E=-7.217802D+00
              MO Center= -1.3D+00,  4.1D-01,  3.7D-01, r^2= 5.8D-02
   Bfn.  Coefficient  Atom+Function         Bfn.  Coefficient  Atom+Function  
  ----- ------------  ---------------      ----- ------------  ---------------
    57      0.534033  5 Cl py                60      0.403136  5 Cl py         
    56      0.137903  5 Cl px                58     -0.121704  5 Cl pz         
    59      0.104102  5 Cl px                61     -0.091873  5 Cl pz         
    63      0.066557  5 Cl py         
 
 Vector    9  Occ=2.000000D+00  E=-1.323168D+00
              MO Center=  8.5D-01, -4.8D-01, -1.1D+00, r^2= 5.4D-01
   Bfn.  Coefficient  Atom+Function         Bfn.  Coefficient  Atom+Function  
  ----- ------------  ---------------      ----- ------------  ---------------
    35      0.517404  3 O  s                 36      0.252484  3 O  s          
    20      0.189492  2 C  s                 33     -0.140862  3 O  s          
    32     -0.117536  3 O  s                 34      0.110945  3 O  s          
    24     -0.108818  2 C  pz                39      0.108121  3 O  pz         
    42      0.104611  3 O  pz                18     -0.068779  2 C  s          
 
 Vector   10  Occ=2.000000D+00  E=-1.030128D+00
              MO Center= -1.5D-01,  1.5D-01,  4.8D-01, r^2= 1.6D+00
   Bfn.  Coefficient  Atom+Function         Bfn.  Coefficient  Atom+Function  
  ----- ------------  ---------------      ----- ------------  ---------------
    54      0.412337  5 Cl s                  5      0.369484  1 C  s          
    55      0.319692  5 Cl s                 53     -0.253685  5 Cl s          
    52     -0.154190  5 Cl s                 20      0.150432  2 C  s          
     6      0.126466  1 C  s                 35     -0.121683  3 O  s          
    65      0.096011  5 Cl px                 3     -0.092928  1 C  s          
 
 Vector   11  Occ=2.000000D+00  E=-9.425445D-01
              MO Center=  3.4D-01, -1.1D-01, -9.2D-02, r^2= 2.7D+00
   Bfn.  Coefficient  Atom+Function         Bfn.  Coefficient  Atom+Function  
  ----- ------------  ---------------      ----- ------------  ---------------
    20      0.380371  2 C  s                 54     -0.370765  5 Cl s          
    55     -0.319053  5 Cl s                 53      0.227783  5 Cl s          
     5      0.164254  1 C  s                 52      0.140012  5 Cl s          
    35     -0.130187  3 O  s                 37      0.123255  3 O  px         
    36     -0.113000  3 O  s                 40      0.106026  3 O  px         
 
 Vector   12  Occ=2.000000D+00  E=-8.643872D-01
              MO Center=  5.4D-01, -2.5D-01, -4.8D-01, r^2= 2.6D+00
   Bfn.  Coefficient  Atom+Function         Bfn.  Coefficient  Atom+Function  
  ----- ------------  ---------------      ----- ------------  ---------------
    54     -0.260198  5 Cl s                  5      0.252446  1 C  s          
    37     -0.240346  3 O  px                55     -0.229003  5 Cl s          
    40     -0.205392  3 O  px                24      0.178843  2 C  pz         
    20     -0.162628  2 C  s                 39     -0.158457  3 O  pz         
    53      0.157461  5 Cl s                 27      0.121869  2 C  pz         
 
 Vector   13  Occ=2.000000D+00  E=-7.362555D-01
              MO Center=  9.2D-01, -2.1D-01,  1.3D-01, r^2= 2.7D+00
   Bfn.  Coefficient  Atom+Function         Bfn.  Coefficient  Atom+Function  
  ----- ------------  ---------------      ----- ------------  ---------------
    20     -0.234130  2 C  s                  5      0.230715  1 C  s          
    24     -0.186288  2 C  pz                 6      0.161964  1 C  s          
    55     -0.162042  5 Cl s                 22     -0.147755  2 C  px         
    37      0.144567  3 O  px                47     -0.144649  4 H  s          
    27     -0.135916  2 C  pz                39      0.133991  3 O  pz         
 
 Vector   14  Occ=2.000000D+00  E=-7.290587D-01
              MO Center=  9.8D-01, -2.9D-01, -1.7D-01, r^2= 2.3D+00
   Bfn.  Coefficient  Atom+Function         Bfn.  Coefficient  Atom+Function  
  ----- ------------  ---------------      ----- ------------  ---------------
    22      0.257193  2 C  px                25      0.254372  2 C  px         
     9      0.200354  1 C  pz                39     -0.193603  3 O  pz         
    36      0.155125  3 O  s                 42     -0.150351  3 O  pz         
    35      0.147481  3 O  s                 12      0.143280  1 C  pz         
     6      0.129890  1 C  s                  5      0.116769  1 C  s          
 
 Vector   15  Occ=2.000000D+00  E=-6.915549D-01
              MO Center=  8.0D-01, -2.1D-01, -7.2D-03, r^2= 2.2D+00
   Bfn.  Coefficient  Atom+Function         Bfn.  Coefficient  Atom+Function  
  ----- ------------  ---------------      ----- ------------  ---------------
    38      0.240743  3 O  py                 8      0.220487  1 C  py         
    23      0.209534  2 C  py                41      0.208224  3 O  py         
    11      0.200589  1 C  py                26      0.187520  2 C  py         
    14      0.101243  1 C  py                44      0.101742  3 O  py         
    71      0.087665  6 H  s                 72      0.087246  6 H  s          
 
 Vector   16  Occ=2.000000D+00  E=-6.255222D-01
              MO Center=  6.9D-01, -2.1D-01, -1.5D-01, r^2= 2.7D+00
   Bfn.  Coefficient  Atom+Function         Bfn.  Coefficient  Atom+Function  
  ----- ------------  ---------------      ----- ------------  ---------------
    38      0.320442  3 O  py                41      0.280521  3 O  py         
    11     -0.228253  1 C  py                 8     -0.223485  1 C  py         
    44      0.158318  3 O  py                72     -0.116548  6 H  s          
    75      0.116553  7 H  s                 71     -0.103115  6 H  s          
    74      0.103116  7 H  s                 26      0.096664  2 C  py         
 
 Vector   17  Occ=2.000000D+00  E=-6.043440D-01
              MO Center= -4.2D-01,  1.9D-01,  3.5D-01, r^2= 2.8D+00
   Bfn.  Coefficient  Atom+Function         Bfn.  Coefficient  Atom+Function  
  ----- ------------  ---------------      ----- ------------  ---------------
    65      0.349886  5 Cl px                10     -0.226393  1 C  px         
    55     -0.215485  5 Cl s                  7     -0.202402  1 C  px         
    12     -0.184423  1 C  pz                62      0.165991  5 Cl px         
     6      0.155763  1 C  s                  9     -0.152417  1 C  pz         
    54     -0.146689  5 Cl s                 39     -0.141024  3 O  pz         
 
 Vector   18  Occ=2.000000D+00  E=-5.880324D-01
              MO Center=  8.9D-01, -4.1D-01, -7.7D-01, r^2= 2.4D+00
   Bfn.  Coefficient  Atom+Function         Bfn.  Coefficient  Atom+Function  
  ----- ------------  ---------------      ----- ------------  ---------------
    37      0.236602  3 O  px                39     -0.226161  3 O  pz         
    40      0.208625  3 O  px                42     -0.186335  3 O  pz         
    36      0.171558  3 O  s                 35      0.170585  3 O  s          
    47     -0.169759  4 H  s                 22     -0.147616  2 C  px         
     9     -0.142392  1 C  pz                12     -0.139838  1 C  pz         
 
 Vector   19  Occ=2.000000D+00  E=-4.978551D-01
              MO Center= -1.1D+00,  3.7D-01,  3.5D-01, r^2= 1.5D+00
   Bfn.  Coefficient  Atom+Function         Bfn.  Coefficient  Atom+Function  
  ----- ------------  ---------------      ----- ------------  ---------------
    67      0.507289  5 Cl pz                70      0.300874  5 Cl pz         
    64      0.231788  5 Cl pz                58     -0.149467  5 Cl pz         
    66      0.147739  5 Cl py                28      0.127699  2 C  px         
    20      0.124070  2 C  s                 65     -0.124690  5 Cl px         
    61     -0.120037  5 Cl pz                48     -0.114399  4 H  s          
 
 Vector   20  Occ=2.000000D+00  E=-4.817556D-01
              MO Center= -1.1D+00,  3.7D-01,  3.9D-01, r^2= 1.6D+00
   Bfn.  Coefficient  Atom+Function         Bfn.  Coefficient  Atom+Function  
  ----- ------------  ---------------      ----- ------------  ---------------
    66      0.514269  5 Cl py                69      0.313423  5 Cl py         
    63      0.238058  5 Cl py                57     -0.152125  5 Cl py         
    65      0.132785  5 Cl px                60     -0.122160  5 Cl py         
    67     -0.117142  5 Cl pz                72     -0.100670  6 H  s          
    75      0.100699  7 H  s                 14      0.098669  1 C  py         
 
 Vector   21  Occ=0.000000D+00  E=-3.845787D-01
              MO Center=  1.1D+00, -3.7D-01, -3.2D-01, r^2= 1.8D+00
   Bfn.  Coefficient  Atom+Function         Bfn.  Coefficient  Atom+Function  
  ----- ------------  ---------------      ----- ------------  ---------------
    26      0.438255  2 C  py                23      0.401760  2 C  py         
    29      0.282005  2 C  py                38     -0.270751  3 O  py         
    44     -0.249921  3 O  py                41     -0.234749  3 O  py         
    72     -0.153230  6 H  s                 75      0.153297  7 H  s          
    25      0.112989  2 C  px                22      0.103589  2 C  px         
 
 Vector   22  Occ=0.000000D+00  E=-2.647384D-01
              MO Center= -2.7D-01,  1.7D-01,  4.3D-01, r^2= 2.9D+00
   Bfn.  Coefficient  Atom+Function         Bfn.  Coefficient  Atom+Function  
  ----- ------------  ---------------      ----- ------------  ---------------
     6      0.602993  1 C  s                 55     -0.599028  5 Cl s          
    68     -0.519752  5 Cl px                65     -0.440238  5 Cl px         
    13     -0.411609  1 C  px                10     -0.397301  1 C  px         
    36     -0.343606  3 O  s                  5      0.296619  1 C  s          
     7     -0.292921  1 C  px                27     -0.177880  2 C  pz         
 
 Vector   23  Occ=0.000000D+00  E=-2.083281D-01
              MO Center= -6.3D-02, -2.6D-01, -1.2D+00, r^2= 3.3D+00
   Bfn.  Coefficient  Atom+Function         Bfn.  Coefficient  Atom+Function  
  ----- ------------  ---------------      ----- ------------  ---------------
    79      1.066041  8 H  s                 36     -0.742579  3 O  s          
     6     -0.464219  1 C  s                 78      0.418218  8 H  s          
    48     -0.375489  4 H  s                 21      0.299321  2 C  s          
    73      0.289430  6 H  s                 76      0.289525  7 H  s          
    43      0.277992  3 O  px                35     -0.223529  3 O  s          
 
 Vector   24  Occ=0.000000D+00  E=-1.729688D-01
              MO Center=  1.4D+00, -1.6D-01,  8.8D-01, r^2= 5.0D+00
   Bfn.  Coefficient  Atom+Function         Bfn.  Coefficient  Atom+Function  
  ----- ------------  ---------------      ----- ------------  ---------------
     6      1.418924  1 C  s                 48     -1.169110  4 H  s          
    73     -1.014386  6 H  s                 76     -1.014250  7 H  s          
    21      0.587853  2 C  s                 15      0.571273  1 C  pz         
    28      0.549231  2 C  px                 5      0.269955  1 C  s          
    79      0.266586  8 H  s                 20      0.234115  2 C  s          
 
 Vector   25  Occ=0.000000D+00  E=-1.352304D-01
              MO Center=  1.6D+00, -3.5D-01,  2.9D-01, r^2= 5.2D+00
   Bfn.  Coefficient  Atom+Function         Bfn.  Coefficient  Atom+Function  
  ----- ------------  ---------------      ----- ------------  ---------------
    21      2.199187  2 C  s                 48     -1.521313  4 H  s          
     6     -1.505050  1 C  s                 76      0.743239  7 H  s          
    73      0.739004  6 H  s                 13     -0.667768  1 C  px         
    79     -0.448267  8 H  s                 28      0.373612  2 C  px         
    20      0.332506  2 C  s                 47     -0.254036  4 H  s          
 
 Vector   26  Occ=0.000000D+00  E=-1.255914D-01
              MO Center=  9.2D-01,  9.2D-02,  1.4D+00, r^2= 4.0D+00
   Bfn.  Coefficient  Atom+Function         Bfn.  Coefficient  Atom+Function  
  ----- ------------  ---------------      ----- ------------  ---------------
    73      1.835151  6 H  s                 76     -1.833473  7 H  s          
    14     -1.468424  1 C  py                29      0.624087  2 C  py         
    11     -0.440216  1 C  py                13     -0.380017  1 C  px         
    15      0.334100  1 C  pz                 8     -0.290349  1 C  py         
    72      0.244223  6 H  s                 75     -0.243939  7 H  s          
 
 Vector   27  Occ=0.000000D+00  E=-6.469950D-02
              MO Center=  6.8D-01, -2.1D-02,  6.8D-01, r^2= 4.1D+00
   Bfn.  Coefficient  Atom+Function         Bfn.  Coefficient  Atom+Function  
  ----- ------------  ---------------      ----- ------------  ---------------
    15      2.238509  1 C  pz                21      2.036525  2 C  s          
    28     -1.552143  2 C  px                48      1.469391  4 H  s          
     6     -1.098478  1 C  s                 73     -0.825988  6 H  s          
    76     -0.824867  7 H  s                 36     -0.674962  3 O  s          
    14      0.570642  1 C  py                25     -0.540146  2 C  px         
 
 Vector   28  Occ=0.000000D+00  E=-5.913014D-02
              MO Center=  1.1D+00, -3.3D-01, -2.2D-01, r^2= 5.7D+00
   Bfn.  Coefficient  Atom+Function         Bfn.  Coefficient  Atom+Function  
  ----- ------------  ---------------      ----- ------------  ---------------
    30      1.941174  2 C  pz                 6     -1.653938  1 C  s          
    15      1.293649  1 C  pz                36      0.953888  3 O  s          
    79      0.914063  8 H  s                 28     -0.622296  2 C  px         
    29      0.602576  2 C  py                13     -0.579261  1 C  px         
    43      0.560705  3 O  px                48      0.520672  4 H  s          
 
 Vector   29  Occ=0.000000D+00  E=-1.102156D-02
              MO Center=  1.1D+00, -3.2D-01, -1.9D-01, r^2= 4.4D+00
   Bfn.  Coefficient  Atom+Function         Bfn.  Coefficient  Atom+Function  
  ----- ------------  ---------------      ----- ------------  ---------------
    29      1.043062  2 C  py                73     -0.762052  6 H  s          
    76      0.763200  7 H  s                 14      0.752502  1 C  py         
    26     -0.615948  2 C  py                28      0.269405  2 C  px         
    72     -0.254050  6 H  s                 75      0.254179  7 H  s          
    23     -0.251516  2 C  py                30     -0.236621  2 C  pz         
 
 Vector   30  Occ=0.000000D+00  E=-3.750421D-03
              MO Center=  5.4D-01,  8.1D-02,  9.7D-01, r^2= 5.1D+00
   Bfn.  Coefficient  Atom+Function         Bfn.  Coefficient  Atom+Function  
  ----- ------------  ---------------      ----- ------------  ---------------
    13      2.221059  1 C  px                55      1.026026  5 Cl s          
    15      0.849952  1 C  pz                30     -0.583072  2 C  pz         
    10     -0.555465  1 C  px                36     -0.558008  3 O  s          
     6      0.467519  1 C  s                 73     -0.407354  6 H  s          
    76     -0.404891  7 H  s                 14     -0.378175  1 C  py         
 
 Vector   31  Occ=0.000000D+00  E= 1.451473D-02
              MO Center=  8.7D-01, -9.3D-02,  5.8D-01, r^2= 4.2D+00
   Bfn.  Coefficient  Atom+Function         Bfn.  Coefficient  Atom+Function  
  ----- ------------  ---------------      ----- ------------  ---------------
    30     -1.146877  2 C  pz                15      1.074065  1 C  pz         
    12     -0.790491  1 C  pz                 6      0.741021  1 C  s          
    21     -0.563961  2 C  s                 79     -0.554102  8 H  s          
    78      0.487280  8 H  s                 47      0.405156  4 H  s          
    48     -0.396352  4 H  s                  5      0.367928  1 C  s          
 
 Vector   32  Occ=0.000000D+00  E= 5.766682D-02
              MO Center=  4.4D-01, -1.4D-02,  4.4D-01, r^2= 5.3D+00
   Bfn.  Coefficient  Atom+Function         Bfn.  Coefficient  Atom+Function  
  ----- ------------  ---------------      ----- ------------  ---------------
    14      3.088594  1 C  py                29     -1.579822  2 C  py         
    73     -1.086866  6 H  s                 76      1.087435  7 H  s          
    13      0.796613  1 C  px                15     -0.702917  1 C  pz         
    72     -0.500644  6 H  s                 75      0.500406  7 H  s          
    28     -0.406301  2 C  px                30      0.359135  2 C  pz         
 
 Vector   33  Occ=0.000000D+00  E= 7.138983D-02
              MO Center=  1.2D+00, -4.5D-01, -5.6D-01, r^2= 4.4D+00
   Bfn.  Coefficient  Atom+Function         Bfn.  Coefficient  Atom+Function  
  ----- ------------  ---------------      ----- ------------  ---------------
    28      1.797221  2 C  px                 6      1.724013  1 C  s          
    30     -1.552545  2 C  pz                48     -1.128299  4 H  s          
    21     -0.828033  2 C  s                 29     -0.816169  2 C  py         
    27      0.774966  2 C  pz                73      0.741692  6 H  s          
    76      0.740075  7 H  s                 15     -0.666586  1 C  pz         
 
 Vector   34  Occ=0.000000D+00  E= 8.588157D-02
              MO Center=  2.2D-01, -3.5D-01, -1.3D+00, r^2= 4.7D+00
   Bfn.  Coefficient  Atom+Function         Bfn.  Coefficient  Atom+Function  
  ----- ------------  ---------------      ----- ------------  ---------------
    28      2.998882  2 C  px                48     -2.491336  4 H  s          
    79      1.603084  8 H  s                  6      1.448730  1 C  s          
    15     -1.158575  1 C  pz                78     -0.947364  8 H  s          
    21     -0.684246  2 C  s                 29     -0.669751  2 C  py         
    20      0.570460  2 C  s                 13     -0.521907  1 C  px         
 
 Vector   35  Occ=0.000000D+00  E= 1.250452D-01
              MO Center=  7.2D-01, -2.6D-01, -3.3D-01, r^2= 4.9D+00
   Bfn.  Coefficient  Atom+Function         Bfn.  Coefficient  Atom+Function  
  ----- ------------  ---------------      ----- ------------  ---------------
    28      4.289822  2 C  px                48     -2.590490  4 H  s          
    15     -1.935823  1 C  pz                13     -1.115431  1 C  px         
    29     -0.972048  2 C  py                20      0.926980  2 C  s          
    73      0.899065  6 H  s                 76      0.897396  7 H  s          
    78      0.866811  8 H  s                 47     -0.625396  4 H  s          
 
 Vector   36  Occ=0.000000D+00  E= 1.388043D-01
              MO Center= -1.8D-01,  8.7D-02,  1.8D-01, r^2= 7.0D+00
   Bfn.  Coefficient  Atom+Function         Bfn.  Coefficient  Atom+Function  
  ----- ------------  ---------------      ----- ------------  ---------------
    48      1.786515  4 H  s                 28     -1.349017  2 C  px         
    68     -1.214691  5 Cl px                15      0.885394  1 C  pz         
    47     -0.765519  4 H  s                  6      0.694279  1 C  s          
    27     -0.689503  2 C  pz                65      0.661556  5 Cl px         
    30      0.487585  2 C  pz                73     -0.474041  6 H  s          
 
 Vector   37  Occ=0.000000D+00  E= 1.692537D-01
              MO Center= -5.7D-01,  1.5D-01,  1.0D-02, r^2= 6.0D+00
   Bfn.  Coefficient  Atom+Function         Bfn.  Coefficient  Atom+Function  
  ----- ------------  ---------------      ----- ------------  ---------------
     6      2.879124  1 C  s                 21     -2.036486  2 C  s          
     5     -0.997305  1 C  s                 48     -0.998676  4 H  s          
    70     -0.979240  5 Cl pz                28      0.965788  2 C  px         
    30     -0.914841  2 C  pz                68     -0.846839  5 Cl px         
    45      0.820206  3 O  pz                67      0.676767  5 Cl pz         
 
 Vector   38  Occ=0.000000D+00  E= 1.707305D-01
              MO Center=  3.8D-01,  3.2D-02,  6.0D-01, r^2= 5.9D+00
   Bfn.  Coefficient  Atom+Function         Bfn.  Coefficient  Atom+Function  
  ----- ------------  ---------------      ----- ------------  ---------------
    73      1.659612  6 H  s                 76     -1.661535  7 H  s          
    72     -0.952266  6 H  s                 75      0.954246  7 H  s          
    14     -0.796771  1 C  py                69     -0.672794  5 Cl py         
    11      0.662932  1 C  py                44     -0.616474  3 O  py         
    66      0.457659  5 Cl py                29      0.315882  2 C  py         
 
 Vector   39  Occ=0.000000D+00  E= 2.005630D-01
              MO Center= -5.3D-01,  3.2D-01,  8.0D-01, r^2= 5.6D+00
   Bfn.  Coefficient  Atom+Function         Bfn.  Coefficient  Atom+Function  
  ----- ------------  ---------------      ----- ------------  ---------------
    14      3.145639  1 C  py                73     -2.621101  6 H  s          
    76      2.621218  7 H  s                 69     -1.429535  5 Cl py         
    13      0.812226  1 C  px                66      0.770631  5 Cl py         
    15     -0.715339  1 C  pz                11     -0.684952  1 C  py         
    72      0.480206  6 H  s                 75     -0.480729  7 H  s          
 
 Vector   40  Occ=0.000000D+00  E= 2.244232D-01
              MO Center=  4.2D-01,  9.2D-02,  8.8D-01, r^2= 5.6D+00
   Bfn.  Coefficient  Atom+Function         Bfn.  Coefficient  Atom+Function  
  ----- ------------  ---------------      ----- ------------  ---------------
    48      1.731659  4 H  s                  6      1.584913  1 C  s          
    28     -1.589837  2 C  px                73     -1.489386  6 H  s          
    76     -1.486821  7 H  s                  5     -1.435982  1 C  s          
    15      0.895755  1 C  pz                72      0.881173  6 H  s          
    75      0.880463  7 H  s                 70      0.607360  5 Cl pz         
 
 Vector   41  Occ=0.000000D+00  E= 2.439749D-01
              MO Center=  1.5D+00, -3.9D-01, -1.1D-02, r^2= 6.1D+00
   Bfn.  Coefficient  Atom+Function         Bfn.  Coefficient  Atom+Function  
  ----- ------------  ---------------      ----- ------------  ---------------
    21      4.272098  2 C  s                 48     -3.296413  4 H  s          
    20     -2.012231  2 C  s                 28      1.804862  2 C  px         
    47      0.730900  4 H  s                 25     -0.601679  2 C  px         
    36     -0.449751  3 O  s                 29     -0.443901  2 C  py         
    78      0.442859  8 H  s                 70      0.387010  5 Cl pz         
 
 Vector   42  Occ=0.000000D+00  E= 2.506560D-01
              MO Center=  4.7D-01, -3.0D-01, -7.8D-01, r^2= 5.7D+00
   Bfn.  Coefficient  Atom+Function         Bfn.  Coefficient  Atom+Function  
  ----- ------------  ---------------      ----- ------------  ---------------
    44      1.434777  3 O  py                73      0.988924  6 H  s          
    76     -0.990847  7 H  s                 29     -0.893061  2 C  py         
    69     -0.678628  5 Cl py                41     -0.538586  3 O  py         
    66      0.445346  5 Cl py                72     -0.416512  6 H  s          
    75      0.416935  7 H  s                 43      0.369908  3 O  px         
 
 Vector   43  Occ=0.000000D+00  E= 2.626734D-01
              MO Center=  5.5D-01, -1.1D-01,  1.4D-01, r^2= 6.5D+00
   Bfn.  Coefficient  Atom+Function         Bfn.  Coefficient  Atom+Function  
  ----- ------------  ---------------      ----- ------------  ---------------
    21      4.281195  2 C  s                 28      1.708914  2 C  px         
    20     -1.654257  2 C  s                 15      1.632294  1 C  pz         
    48     -1.500989  4 H  s                 30      1.409166  2 C  pz         
    73     -1.384654  6 H  s                 76     -1.384265  7 H  s          
    13     -1.180252  1 C  px                79      1.080123  8 H  s          
 
 Vector   44  Occ=0.000000D+00  E= 3.166504D-01
              MO Center=  1.9D-01, -2.8D-01, -9.9D-01, r^2= 6.4D+00
   Bfn.  Coefficient  Atom+Function         Bfn.  Coefficient  Atom+Function  
  ----- ------------  ---------------      ----- ------------  ---------------
    21      2.989251  2 C  s                 45     -2.013698  3 O  pz         
    28     -1.780813  2 C  px                79     -1.747112  8 H  s          
    70     -1.204404  5 Cl pz                15      1.157791  1 C  pz         
     5     -1.026253  1 C  s                  6      0.890068  1 C  s          
    48      0.884651  4 H  s                 13     -0.798652  1 C  px         
 
 Vector   45  Occ=0.000000D+00  E= 3.848081D-01
              MO Center=  6.8D-01, -2.2D-01, -1.8D-01, r^2= 5.9D+00
   Bfn.  Coefficient  Atom+Function         Bfn.  Coefficient  Atom+Function  
  ----- ------------  ---------------      ----- ------------  ---------------
    21     -5.860631  2 C  s                  6      5.436098  1 C  s          
    43      2.149162  3 O  px                 5     -1.961023  1 C  s          
    79      1.406498  8 H  s                 13      1.363649  1 C  px         
    45      1.061329  3 O  pz                15     -1.055589  1 C  pz         
    70      0.835293  5 Cl pz                47      0.745507  4 H  s          
 
 Vector   46  Occ=0.000000D+00  E= 4.758933D-01
              MO Center=  1.1D+00, -4.0D-01, -4.5D-01, r^2= 5.8D+00
   Bfn.  Coefficient  Atom+Function         Bfn.  Coefficient  Atom+Function  
  ----- ------------  ---------------      ----- ------------  ---------------
     6      9.836003  1 C  s                 28      4.839997  2 C  px         
    21     -4.606824  2 C  s                 30     -3.045664  2 C  pz         
    43     -2.950654  3 O  px                48     -2.774150  4 H  s          
    15     -2.168276  1 C  pz                 5     -2.136583  1 C  s          
    29     -1.941712  2 C  py                78     -1.069901  8 H  s          
 
 Vector   47  Occ=0.000000D+00  E= 7.056591D-01
              MO Center= -7.9D-01,  2.5D-01,  2.0D-01, r^2= 3.3D+00
   Bfn.  Coefficient  Atom+Function         Bfn.  Coefficient  Atom+Function  
  ----- ------------  ---------------      ----- ------------  ---------------
    55      3.668105  5 Cl s                  6     -3.142968  1 C  s          
    54     -2.641990  5 Cl s                 36      1.261075  3 O  s          
    21      1.117371  2 C  s                 68      1.100236  5 Cl px         
    48     -0.835172  4 H  s                 28      0.828608  2 C  px         
    35     -0.779132  3 O  s                  5      0.760761  1 C  s          
 
 Vector   48  Occ=0.000000D+00  E= 8.221759D-01
              MO Center=  7.1D-01, -4.2D-01, -1.0D+00, r^2= 3.2D+00
   Bfn.  Coefficient  Atom+Function         Bfn.  Coefficient  Atom+Function  
  ----- ------------  ---------------      ----- ------------  ---------------
    36      5.990714  3 O  s                 21     -3.933553  2 C  s          
    35     -2.870485  3 O  s                 28      2.818856  2 C  px         
     6      2.555369  1 C  s                 45      1.638671  3 O  pz         
    48     -1.417458  4 H  s                 55     -1.417812  5 Cl s          
    15     -1.292603  1 C  pz                27      1.043027  2 C  pz         
 
 Vector   49  Occ=0.000000D+00  E= 1.041743D+00
              MO Center=  9.4D-01, -2.2D-01,  9.8D-02, r^2= 2.3D+00
   Bfn.  Coefficient  Atom+Function         Bfn.  Coefficient  Atom+Function  
  ----- ------------  ---------------      ----- ------------  ---------------
    27      2.218074  2 C  pz                 6     -1.537262  1 C  s          
    12      1.524635  1 C  pz                28     -0.970635  2 C  px         
    24     -0.892582  2 C  pz                30     -0.856902  2 C  pz         
     9     -0.786993  1 C  pz                15     -0.688510  1 C  pz         
    48      0.690842  4 H  s                 21     -0.652120  2 C  s          
 
 Vector   50  Occ=0.000000D+00  E= 1.055805D+00
              MO Center=  1.3D+00, -3.7D-01, -1.7D-01, r^2= 1.7D+00
   Bfn.  Coefficient  Atom+Function         Bfn.  Coefficient  Atom+Function  
  ----- ------------  ---------------      ----- ------------  ---------------
    26      1.610415  2 C  py                23     -1.156060  2 C  py         
    29     -0.791202  2 C  py                14     -0.475169  1 C  py         
    73      0.432667  6 H  s                 76     -0.432737  7 H  s          
    25      0.415102  2 C  px                27     -0.366723  2 C  pz         
    22     -0.298023  2 C  px                 8     -0.284907  1 C  py         
 
 Vector   51  Occ=0.000000D+00  E= 1.103367D+00
              MO Center=  6.7D-01, -4.4D-02,  5.7D-01, r^2= 2.4D+00
   Bfn.  Coefficient  Atom+Function         Bfn.  Coefficient  Atom+Function  
  ----- ------------  ---------------      ----- ------------  ---------------
    25      1.682847  2 C  px                10      1.669122  1 C  px         
     6      1.119627  1 C  s                 48      1.004794  4 H  s          
     7     -0.958653  1 C  px                55     -0.955370  5 Cl s          
    13     -0.892299  1 C  px                28     -0.844045  2 C  px         
    20     -0.792653  2 C  s                 12     -0.773313  1 C  pz         
 
 Vector   52  Occ=0.000000D+00  E= 1.214776D+00
              MO Center=  4.9D-01,  3.7D-02,  7.1D-01, r^2= 2.0D+00
   Bfn.  Coefficient  Atom+Function         Bfn.  Coefficient  Atom+Function  
  ----- ------------  ---------------      ----- ------------  ---------------
    14     -2.418387  1 C  py                11      2.306583  1 C  py         
    73      1.614438  6 H  s                 76     -1.615041  7 H  s          
     8     -1.198509  1 C  py                72     -0.714391  6 H  s          
    75      0.715453  7 H  s                 29      0.696023  2 C  py         
    26     -0.634163  2 C  py                13     -0.623881  1 C  px         
 
 Vector   53  Occ=0.000000D+00  E= 1.250115D+00
              MO Center=  9.5D-01, -1.7D-01,  3.5D-01, r^2= 2.5D+00
   Bfn.  Coefficient  Atom+Function         Bfn.  Coefficient  Atom+Function  
  ----- ------------  ---------------      ----- ------------  ---------------
    27      1.791502  2 C  pz                12     -1.387812  1 C  pz         
    15      1.009400  1 C  pz                20     -0.965321  2 C  s          
     9      0.917398  1 C  pz                24     -0.800338  2 C  pz         
    21      0.761962  2 C  s                  5     -0.676270  1 C  s          
    72      0.634719  6 H  s                 75      0.633695  7 H  s          
 
 Vector   54  Occ=0.000000D+00  E= 1.321496D+00
              MO Center=  8.9D-01, -1.7D-01,  2.5D-01, r^2= 2.5D+00
   Bfn.  Coefficient  Atom+Function         Bfn.  Coefficient  Atom+Function  
  ----- ------------  ---------------      ----- ------------  ---------------
    25      2.307481  2 C  px                28     -2.125167  2 C  px         
    48      1.887447  4 H  s                 10     -1.259977  1 C  px         
    47     -1.116709  4 H  s                 12     -1.044329  1 C  pz         
    15      1.038730  1 C  pz                22     -0.975206  2 C  px         
    13      0.917508  1 C  px                 7      0.766285  1 C  px         
 
 Vector   55  Occ=0.000000D+00  E= 1.764191D+00
              MO Center= -9.9D-02, -3.0D-01, -1.4D+00, r^2= 1.6D+00
   Bfn.  Coefficient  Atom+Function         Bfn.  Coefficient  Atom+Function  
  ----- ------------  ---------------      ----- ------------  ---------------
    78      2.218616  8 H  s                 77     -1.249832  8 H  s          
    79     -1.102303  8 H  s                 40      0.823511  3 O  px         
    37     -0.550291  3 O  px                20      0.459035  2 C  s          
    28     -0.391103  2 C  px                36     -0.347541  3 O  s          
    15     -0.337462  1 C  pz                67     -0.328809  5 Cl pz         
 
 Vector   56  Occ=0.000000D+00  E= 1.842277D+00
              MO Center=  9.8D-01, -7.1D-02,  8.0D-01, r^2= 3.1D+00
   Bfn.  Coefficient  Atom+Function         Bfn.  Coefficient  Atom+Function  
  ----- ------------  ---------------      ----- ------------  ---------------
    20     -2.526468  2 C  s                  5      2.455921  1 C  s          
     4     -1.877776  1 C  s                 19      1.773595  2 C  s          
    72     -1.212108  6 H  s                 75     -1.212371  7 H  s          
    21      1.175458  2 C  s                 47      1.059383  4 H  s          
    48     -0.803692  4 H  s                  6     -0.707137  1 C  s          
 
 Vector   57  Occ=0.000000D+00  E= 1.941341D+00
              MO Center=  1.6D+00, -3.4D-01,  3.4D-01, r^2= 2.7D+00
   Bfn.  Coefficient  Atom+Function         Bfn.  Coefficient  Atom+Function  
  ----- ------------  ---------------      ----- ------------  ---------------
    20      2.091781  2 C  s                 47     -1.645809  4 H  s          
    19     -1.585294  2 C  s                  5      1.518372  1 C  s          
     4     -1.314877  1 C  s                 21     -1.317973  2 C  s          
    46      1.045549  4 H  s                 72     -0.807051  6 H  s          
    75     -0.806724  7 H  s                 28      0.790748  2 C  px         
 
 Vector   58  Occ=0.000000D+00  E= 2.014665D+00
              MO Center= -1.2D-01,  2.8D-01,  1.1D+00, r^2= 3.0D+00
   Bfn.  Coefficient  Atom+Function         Bfn.  Coefficient  Atom+Function  
  ----- ------------  ---------------      ----- ------------  ---------------
    72      1.308262  6 H  s                 75     -1.308328  7 H  s          
    66      1.241175  5 Cl py                63     -1.177462  5 Cl py         
    71     -0.852919  6 H  s                 74      0.852934  7 H  s          
    73     -0.781565  6 H  s                 76      0.781629  7 H  s          
    69     -0.434239  5 Cl py                65      0.320157  5 Cl px         
 
 Vector   59  Occ=0.000000D+00  E= 2.079403D+00
              MO Center= -2.4D-01,  1.3D-01,  2.9D-01, r^2= 3.6D+00
   Bfn.  Coefficient  Atom+Function         Bfn.  Coefficient  Atom+Function  
  ----- ------------  ---------------      ----- ------------  ---------------
    20      1.979540  2 C  s                 19     -1.631036  2 C  s          
    67      1.390283  5 Cl pz                21     -1.368314  2 C  s          
    64     -1.288312  5 Cl pz                 5      0.976527  1 C  s          
     4     -0.804975  1 C  s                 65     -0.773669  5 Cl px         
    47      0.727045  4 H  s                 62      0.700607  5 Cl px         
 
 Vector   60  Occ=0.000000D+00  E= 2.094969D+00
              MO Center= -3.2D-01,  2.3D-01,  6.3D-01, r^2= 3.3D+00
   Bfn.  Coefficient  Atom+Function         Bfn.  Coefficient  Atom+Function  
  ----- ------------  ---------------      ----- ------------  ---------------
    66     -1.424780  5 Cl py                63      1.315305  5 Cl py         
    72      0.961839  6 H  s                 75     -0.961836  7 H  s          
    69      0.732940  5 Cl py                71     -0.713820  6 H  s          
    74      0.713820  7 H  s                 14     -0.691812  1 C  py         
    41     -0.446896  3 O  py                65     -0.367378  5 Cl px         
 
 Vector   61  Occ=0.000000D+00  E= 2.115646D+00
              MO Center= -1.3D+00,  4.1D-01,  3.4D-01, r^2= 1.5D+00
   Bfn.  Coefficient  Atom+Function         Bfn.  Coefficient  Atom+Function  
  ----- ------------  ---------------      ----- ------------  ---------------
    65      1.900353  5 Cl px                62     -1.664074  5 Cl px         
    67      1.133072  5 Cl pz                64     -1.006014  5 Cl pz         
     6     -0.939284  1 C  s                 21      0.941651  2 C  s          
    68     -0.687668  5 Cl px                 5     -0.528078  1 C  s          
    70     -0.501626  5 Cl pz                 4      0.492526  1 C  s          
 
 Vector   62  Occ=0.000000D+00  E= 2.170969D+00
              MO Center=  5.6D-01, -1.3D-01,  7.4D-02, r^2= 3.7D+00
   Bfn.  Coefficient  Atom+Function         Bfn.  Coefficient  Atom+Function  
  ----- ------------  ---------------      ----- ------------  ---------------
    20      3.549298  2 C  s                 21     -3.060590  2 C  s          
    19     -2.629599  2 C  s                 67     -1.053631  5 Cl pz         
    47      1.012037  4 H  s                  5      0.954038  1 C  s          
     6     -0.921109  1 C  s                 64      0.920723  5 Cl pz         
     4     -0.823214  1 C  s                 15     -0.775196  1 C  pz         
 
 Vector   63  Occ=0.000000D+00  E= 2.193542D+00
              MO Center=  7.6D-01, -4.8D-01, -1.2D+00, r^2= 1.8D+00
   Bfn.  Coefficient  Atom+Function         Bfn.  Coefficient  Atom+Function  
  ----- ------------  ---------------      ----- ------------  ---------------
    41      1.586771  3 O  py                38     -1.088580  3 O  py         
    44     -0.934506  3 O  py                29      0.550755  2 C  py         
    66     -0.485094  5 Cl py                63      0.417715  5 Cl py         
    40      0.409101  3 O  px                14     -0.377264  1 C  py         
    42     -0.361431  3 O  pz                69      0.292475  5 Cl py         
 
 Vector   64  Occ=0.000000D+00  E= 2.319346D+00
              MO Center=  8.6D-01, -3.6D-01, -6.0D-01, r^2= 2.8D+00
   Bfn.  Coefficient  Atom+Function         Bfn.  Coefficient  Atom+Function  
  ----- ------------  ---------------      ----- ------------  ---------------
     6      3.245312  1 C  s                  5     -2.336771  1 C  s          
    21     -2.100754  2 C  s                  4      1.676306  1 C  s          
    20      1.530985  2 C  s                 19     -1.217249  2 C  s          
    42      1.209165  3 O  pz                39     -0.827262  3 O  pz         
    72     -0.753420  6 H  s                 75     -0.753382  7 H  s          
 
 Vector   65  Occ=0.000000D+00  E= 2.412747D+00
              MO Center=  7.7D-01, -2.2D-01, -7.8D-02, r^2= 3.3D+00
   Bfn.  Coefficient  Atom+Function         Bfn.  Coefficient  Atom+Function  
  ----- ------------  ---------------      ----- ------------  ---------------
     6      5.637080  1 C  s                  5     -3.908169  1 C  s          
    21     -3.351807  2 C  s                  4      2.652586  1 C  s          
    42     -1.274907  3 O  pz                28      1.193040  2 C  px         
    20      1.011385  2 C  s                 45      0.998627  3 O  pz         
    72     -0.975950  6 H  s                 75     -0.975905  7 H  s          
 
 Vector   66  Occ=0.000000D+00  E= 2.659129D+00
              MO Center=  8.1D-01, -4.8D-01, -1.2D+00, r^2= 1.8D+00
   Bfn.  Coefficient  Atom+Function         Bfn.  Coefficient  Atom+Function  
  ----- ------------  ---------------      ----- ------------  ---------------
     6      3.389803  1 C  s                  5     -1.982916  1 C  s          
    28      1.944751  2 C  px                43     -1.880693  3 O  px         
    40      1.712807  3 O  px                 4      1.218536  1 C  s          
    30     -1.217064  2 C  pz                48     -1.173596  4 H  s          
    78     -1.165093  8 H  s                 21     -1.102922  2 C  s          
 
 Vector   67  Occ=0.000000D+00  E= 4.268764D+00
              MO Center=  8.7D-01, -5.4D-01, -1.4D+00, r^2= 8.6D-01
   Bfn.  Coefficient  Atom+Function         Bfn.  Coefficient  Atom+Function  
  ----- ------------  ---------------      ----- ------------  ---------------
    35      4.920066  3 O  s                 34     -3.866613  3 O  s          
    36     -3.705626  3 O  s                 21      1.700318  2 C  s          
    28     -1.306386  2 C  px                 6     -0.892432  1 C  s          
    33      0.813294  3 O  s                 45     -0.689846  3 O  pz         
    48      0.656231  4 H  s                 78      0.595547  8 H  s          
 
 Vector   68  Occ=0.000000D+00  E= 8.761920D+00
              MO Center= -1.2D+00,  4.0D-01,  3.7D-01, r^2= 4.3D-01
   Bfn.  Coefficient  Atom+Function         Bfn.  Coefficient  Atom+Function  
  ----- ------------  ---------------      ----- ------------  ---------------
    53      3.225863  5 Cl s                 52     -2.690290  5 Cl s          
    54     -2.066518  5 Cl s                 55      1.495583  5 Cl s          
     6     -0.745494  1 C  s                 51      0.459276  5 Cl s          
    13      0.415812  1 C  px                68      0.359683  5 Cl px         
    21      0.335528  2 C  s                 15      0.196535  1 C  pz         
 
 Vector   69  Occ=0.000000D+00  E= 1.118979D+01
              MO Center=  1.2D+00, -3.4D-01, -9.7D-02, r^2= 5.8D-01
   Bfn.  Coefficient  Atom+Function         Bfn.  Coefficient  Atom+Function  
  ----- ------------  ---------------      ----- ------------  ---------------
    19     -3.083317  2 C  s                 18      3.065375  2 C  s          
    20      2.547465  2 C  s                 17     -1.612125  2 C  s          
    21     -1.261538  2 C  s                  3      1.108473  1 C  s          
     4     -1.104125  1 C  s                  5      0.861544  1 C  s          
     2     -0.581645  1 C  s                  6     -0.511513  1 C  s          
 
 Vector   70  Occ=0.000000D+00  E= 1.138609D+01
              MO Center=  5.7D-01,  2.4D-02,  7.6D-01, r^2= 5.7D-01
   Bfn.  Coefficient  Atom+Function         Bfn.  Coefficient  Atom+Function  
  ----- ------------  ---------------      ----- ------------  ---------------
     4     -3.223733  1 C  s                  3      3.089631  1 C  s          
     5      2.923093  1 C  s                  6     -2.583998  1 C  s          
     2     -1.614896  1 C  s                 21      1.379403  2 C  s          
    19      1.181085  2 C  s                 20     -1.173464  2 C  s          
    18     -1.109688  2 C  s                 17      0.581092  2 C  s          
 
 Vector   71  Occ=0.000000D+00  E= 2.154880D+01
              MO Center=  8.8D-01, -5.5D-01, -1.4D+00, r^2= 2.0D-01
   Bfn.  Coefficient  Atom+Function         Bfn.  Coefficient  Atom+Function  
  ----- ------------  ---------------      ----- ------------  ---------------
    33      3.316813  3 O  s                 34     -3.196525  3 O  s          
    35      2.529119  3 O  s                 32     -1.740872  3 O  s          
    36     -1.544583  3 O  s                 21      0.671430  2 C  s          
    28     -0.522089  2 C  px                 6     -0.350426  1 C  s          
    45     -0.283625  3 O  pz                48      0.268844  4 H  s          
 
 Vector   72  Occ=0.000000D+00  E= 4.052254D+01
              MO Center= -1.3D+00,  4.1D-01,  3.7D-01, r^2= 7.4D-02
   Bfn.  Coefficient  Atom+Function         Bfn.  Coefficient  Atom+Function  
  ----- ------------  ---------------      ----- ------------  ---------------
    57      2.511316  5 Cl py                60     -2.243622  5 Cl py         
    63     -0.758097  5 Cl py                56      0.648238  5 Cl px         
    59     -0.579139  5 Cl px                58     -0.572211  5 Cl pz         
    61      0.511216  5 Cl pz                66      0.338859  5 Cl py         
    62     -0.195685  5 Cl px                64      0.172735  5 Cl pz         
 
 Vector   73  Occ=0.000000D+00  E= 4.053400D+01
              MO Center= -1.3D+00,  4.1D-01,  3.7D-01, r^2= 7.4D-02
   Bfn.  Coefficient  Atom+Function         Bfn.  Coefficient  Atom+Function  
  ----- ------------  ---------------      ----- ------------  ---------------
    58      1.926195  5 Cl pz                61     -1.720283  5 Cl pz         
    56     -1.617721  5 Cl px                59      1.444295  5 Cl px         
    57      0.856467  5 Cl py                60     -0.764784  5 Cl py         
    64     -0.584828  5 Cl pz                62      0.493513  5 Cl px         
    67      0.268469  5 Cl pz                63     -0.260644  5 Cl py         
 
 Vector   74  Occ=0.000000D+00  E= 4.054021D+01
              MO Center= -1.3D+00,  4.1D-01,  3.6D-01, r^2= 7.4D-02
   Bfn.  Coefficient  Atom+Function         Bfn.  Coefficient  Atom+Function  
  ----- ------------  ---------------      ----- ------------  ---------------
    56      2.007068  5 Cl px                59     -1.791243  5 Cl px         
    58      1.738756  5 Cl pz                61     -1.552274  5 Cl pz         
    62     -0.615830  5 Cl px                64     -0.530998  5 Cl pz         
    65      0.291023  5 Cl px                67      0.248038  5 Cl pz         
    21      0.138859  2 C  s                  6     -0.136843  1 C  s          
 
 Vector   75  Occ=0.000000D+00  E= 6.212305D+01
              MO Center=  1.2D+00, -3.3D-01, -8.9D-02, r^2= 3.2D-01
   Bfn.  Coefficient  Atom+Function         Bfn.  Coefficient  Atom+Function  
  ----- ------------  ---------------      ----- ------------  ---------------
    17      2.746756  2 C  s                 18     -2.082359  2 C  s          
    16     -1.627499  2 C  s                 19      1.358663  2 C  s          
    20     -1.062113  2 C  s                  2      1.044952  1 C  s          
     3     -0.792061  1 C  s                  1     -0.619933  1 C  s          
    21      0.530204  2 C  s                  4      0.511396  1 C  s          
 
 Vector   76  Occ=0.000000D+00  E= 6.232419D+01
              MO Center=  5.8D-01,  1.8D-02,  7.4D-01, r^2= 3.2D-01
   Bfn.  Coefficient  Atom+Function         Bfn.  Coefficient  Atom+Function  
  ----- ------------  ---------------      ----- ------------  ---------------
     2      2.757626  1 C  s                  3     -2.105642  1 C  s          
     1     -1.628773  1 C  s                  4      1.425679  1 C  s          
     5     -1.223144  1 C  s                  6      1.068961  1 C  s          
    17     -1.052351  2 C  s                 18      0.803806  2 C  s          
    16      0.620785  2 C  s                 21     -0.588170  2 C  s          
 
 Vector   77  Occ=0.000000D+00  E= 1.174852D+02
              MO Center=  8.8D-01, -5.5D-01, -1.4D+00, r^2= 4.4D-02
   Bfn.  Coefficient  Atom+Function         Bfn.  Coefficient  Atom+Function  
  ----- ------------  ---------------      ----- ------------  ---------------
    32      2.967810  3 O  s                 33     -2.269446  3 O  s          
    31     -1.755897  3 O  s                 34      1.424584  3 O  s          
    35     -1.063695  3 O  s                 36      0.651934  3 O  s          
    21     -0.288009  2 C  s                 28      0.223338  2 C  px         
     6      0.146369  1 C  s                 45      0.120258  3 O  pz         
 
 Vector   78  Occ=0.000000D+00  E= 1.227979D+02
              MO Center= -1.3D+00,  4.1D-01,  3.7D-01, r^2= 3.8D-02
   Bfn.  Coefficient  Atom+Function         Bfn.  Coefficient  Atom+Function  
  ----- ------------  ---------------      ----- ------------  ---------------
    51      2.263601  5 Cl s                 52     -1.717106  5 Cl s          
    50     -1.608501  5 Cl s                 53      1.156512  5 Cl s          
    54     -0.522810  5 Cl s                 55      0.368537  5 Cl s          
     6     -0.207926  1 C  s                 13      0.099890  1 C  px         
    49     -0.099118  5 Cl s                 68      0.089820  5 Cl px         
 
 Vector   79  Occ=0.000000D+00  E= 8.993457D+02
              MO Center= -1.3D+00,  4.1D-01,  3.7D-01, r^2= 6.7D-03
   Bfn.  Coefficient  Atom+Function         Bfn.  Coefficient  Atom+Function  
  ----- ------------  ---------------      ----- ------------  ---------------
    50      2.342436  5 Cl s                 49     -1.742229  5 Cl s          
    51     -1.316535  5 Cl s                 52      0.700272  5 Cl s          
    53     -0.451134  5 Cl s                 54      0.203175  5 Cl s          
    55     -0.143587  5 Cl s                  6      0.079750  1 C  s          
    13     -0.038907  1 C  px                68     -0.035035  5 Cl px         
 

 center of mass
 --------------
 x =  -0.11613978 y =   0.02464995 z =  -0.02342481

 moments of inertia (a.u.)
 ------------------
         247.085597238858         115.160259215568         117.434494836140
         115.160259215568         543.190725952618         -73.439401822016
         117.434494836140         -73.439401822016         400.281159464013
 
     Multipole analysis of the density
     ---------------------------------
 
     L   x y z        total         alpha         beta         nuclear
     -   - - -        -----         -----         ----         -------
     0   0 0 0      1.000000    -20.000000    -20.000000     41.000000
 
     1   1 0 0      1.588850      0.794425      0.794425      0.000000
     1   0 1 0     -0.360308     -0.180154     -0.180154     -0.000000
     1   0 0 1      0.219315      0.109658      0.109658      0.000000
 
     2   2 0 0    -15.440717    -99.583696    -99.583696    183.726675
     2   1 1 0     -0.799487     28.778168     28.778168    -58.355822
     2   1 0 1      2.531997     28.446556     28.446556    -54.361115
     2   0 2 0    -20.535387    -24.895172    -24.895172     29.254957
     2   0 1 1      0.147178    -18.803681    -18.803681     37.754541
     2   0 0 2    -17.261012    -63.507568    -63.507568    109.754124
 

 Task  times  cpu:        1.5s     wall:        1.7s
 
 
                                NWChem Input Module
                                -------------------
 
 
 Summary of allocated global arrays
-----------------------------------
  No active global arrays



                         GA Statistics for process    0
                         ------------------------------

       create   destroy   get      put      acc     scatter   gather  read&inc
calls:  168      168     6297     1239     3398        0        0      332     
number of processes/call 1.49e+01 4.25e+01 1.04e+01 0.00e+00 0.00e+00
bytes total:             1.82e+07 2.49e+06 8.83e+06 0.00e+00 0.00e+00 2.66e+03
bytes remote:            1.46e+07 1.41e+06 7.47e+06 0.00e+00 0.00e+00 0.00e+00
Max memory consumed for GA by this process: 264160 bytes
 
 
 
                                     CITATION
                                     --------
                Please cite the following reference when publishing
                           results obtained with NWChem:
 
          E. Apr, E. J. Bylaska, W. A. de Jong, N. Govind, K. Kowalski,
       T. P. Straatsma, M. Valiev, H. J. J. van Dam, Y. Alexeev, J. Anchell,
       V. Anisimov, F. W. Aquino, R. Atta-Fynn, J. Autschbach, N. P. Bauman,
     J. C. Becca, D. E. Bernholdt, K. Bhaskaran-Nair, S. Bogatko, P. Borowski,
        J. Boschen, J. Brabec, A. Bruner, E. Caut, Y. Chen, G. N. Chuev,
      C. J. Cramer, J. Daily, M. J. O. Deegan, T. H. Dunning Jr., M. Dupuis,
   K. G. Dyall, G. I. Fann, S. A. Fischer, A. Fonari, H. Frchtl, L. Gagliardi,
      J. Garza, N. Gawande, S. Ghosh, K. Glaesemann, A. W. Gtz, J. Hammond,
       V. Helms, E. D. Hermes, K. Hirao, S. Hirata, M. Jacquelin, L. Jensen,
   B. G. Johnson, H. Jnsson, R. A. Kendall, M. Klemm, R. Kobayashi, V. Konkov,
      S. Krishnamoorthy, M. Krishnan, Z. Lin, R. D. Lins, R. J. Littlefield,
      A. J. Logsdail, K. Lopata, W. Ma, A. V. Marenich, J. Martin del Campo,
   D. Mejia-Rodriguez, J. E. Moore, J. M. Mullin, T. Nakajima, D. R. Nascimento,
    J. A. Nichols, P. J. Nichols, J. Nieplocha, A. Otero-de-la-Roza, B. Palmer,
    A. Panyala, T. Pirojsirikul, B. Peng, R. Peverati, J. Pittner, L. Pollack,
   R. M. Richard, P. Sadayappan, G. C. Schatz, W. A. Shelton, D. W. Silverstein,
   D. M. A. Smith, T. A. Soares, D. Song, M. Swart, H. L. Taylor, G. S. Thomas,
            V. Tipparaju, D. G. Truhlar, K. Tsemekhman, T. Van Voorhis,
     . Vzquez-Mayagoitia, P. Verma, O. Villa, A. Vishnu, K. D. Vogiatzis,
        D. Wang, J. H. Weare, M. J. Williamson, T. L. Windus, K. Woliski,
        A. T. Wong, Q. Wu, C. Yang, Q. Yu, M. Zacharias, Z. Zhang, Y. Zhao,
                                and R. J. Harrison
                        "NWChem: Past, present, and future
                         J. Chem. Phys. 152, 184102 (2020)
                               doi:10.1063/5.0004997
 
                                      AUTHORS
                                      -------
     E. Apra, E. J. Bylaska, N. Govind, K. Kowalski, M. Valiev, W. A. de Jong,
      T. P. Straatsma, H. J. J. van Dam, D. Wang, T. L. Windus, N. P. Bauman,
       A. Panyala, J. Hammond, J. Autschbach, K. Bhaskaran-Nair, J. Brabec,
    K. Lopata, S. A. Fischer, S. Krishnamoorthy, M. Jacquelin, W. Ma, M. Klemm,
       O. Villa, Y. Chen, V. Anisimov, F. Aquino, S. Hirata, M. T. Hackler,
           Eric Hermes, L. Jensen, J. E. Moore, J. C. Becca, V. Konjkov,
            D. Mejia-Rodriguez, T. Risthaus, M. Malagoli, A. Marenich,
   A. Otero-de-la-Roza, J. Mullin, P. Nichols, R. Peverati, J. Pittner, Y. Zhao,
        P.-D. Fan, A. Fonari, M. J. Williamson, R. J. Harrison, J. R. Rehr,
      M. Dupuis, D. Silverstein, D. M. A. Smith, J. Nieplocha, V. Tipparaju,
      M. Krishnan, B. E. Van Kuiken, A. Vazquez-Mayagoitia, M. Swart, Q. Wu,
   T. Van Voorhis, A. A. Auer, M. Nooijen, L. D. Crosby, E. Brown, G. Cisneros,
     G. I. Fann, H. Fruchtl, J. Garza, K. Hirao, R. A. Kendall, J. A. Nichols,
       K. Tsemekhman, K. Wolinski, J. Anchell, D. E. Bernholdt, P. Borowski,
       T. Clark, D. Clerc, H. Dachsel, M. J. O. Deegan, K. Dyall, D. Elwood,
      E. Glendening, M. Gutowski, A. C. Hess, J. Jaffe, B. G. Johnson, J. Ju,
        R. Kobayashi, R. Kutteh, Z. Lin, R. Littlefield, X. Long, B. Meng,
      T. Nakajima, S. Niu, L. Pollack, M. Rosing, K. Glaesemann, G. Sandrone,
      M. Stave, H. Taylor, G. Thomas, J. H. van Lenthe, A. T. Wong, Z. Zhang.

 Total times  cpu:        1.6s     wall:        1.8s
