 
             Northwest Computational Chemistry Package (NWChem) 7.0.0
             --------------------------------------------------------
 
 
                    Environmental Molecular Sciences Laboratory
                       Pacific Northwest National Laboratory
                                Richland, WA 99352
 
                              Copyright (c) 1994-2020
                       Pacific Northwest National Laboratory
                            Battelle Memorial Institute
 
             NWChem is an open-source computational chemistry package
                        distributed under the terms of the
                      Educational Community License (ECL) 2.0
             A copy of the license is included with this distribution
                              in the LICENSE.TXT file
 
                                  ACKNOWLEDGMENT
                                  --------------

            This software and its documentation were developed at the
            EMSL at Pacific Northwest National Laboratory, a multiprogram
            national laboratory, operated for the U.S. Department of Energy
            by Battelle under Contract Number DE-AC05-76RL01830. Support
            for this work was provided by the Department of Energy Office
            of Biological and Environmental Research, Office of Basic
            Energy Sciences, and the Office of Advanced Scientific Computing.


                                NWChem Input Module
                                -------------------
 
 
 Summary of "ao basis" -> "" (spherical)
 ------------------------------------------------------------------------------
       Tag                 Description            Shells   Functions and Types
 ---------------- ------------------------------  ------  ---------------------
 *                        ahlrichs_vtz                on all atoms 



 Scaling coordinates for geometry "geometry" by  1.889725989
 (inverse scale =  0.529177249)

 
 
                             Geometry "geometry" -> ""
                             -------------------------
 
 Output coordinates in angstroms (scale by  1.889725989 to convert to a.u.)
 
  No.       Tag          Charge          X              Y              Z
 ---- ---------------- ---------- -------------- -------------- --------------
    1 C                    6.0000    -0.00949886     0.10962454    -0.02487650
    2 C                    6.0000     0.09858448    -0.92819800    -1.09219515
    3 O                    8.0000     0.18731219    -2.19537741    -0.88393372
    4 H                    1.0000     0.10625835    -0.62513527    -2.14140898
    5 Cl                  17.0000    -1.59681561     0.96317072    -0.40762476
    6 Cl                  17.0000    -0.00781754    -0.63190099     1.65610757
    7 Cl                  17.0000     1.46819341     1.17366431    -0.31734375
    8 H                    1.0000     0.18020622    -2.48428363     0.08594459
 
      Atomic Mass 
      ----------- 
 
      C                 12.000000
      O                 15.994910
      H                  1.007825
      Cl                34.968850
 

 Effective nuclear repulsion energy (a.u.)     435.1837585382

            Nuclear Dipole moment (a.u.) 
            ----------------------------
        X                 Y               Z
 ---------------- ---------------- ----------------
    -0.0000000000    -0.0000000000     0.0000000000
 
 
            XYZ format geometry
            -------------------
     8
 geometry
 C                    -0.00949886     0.10962454    -0.02487650
 C                     0.09858448    -0.92819800    -1.09219515
 O                     0.18731219    -2.19537741    -0.88393372
 H                     0.10625835    -0.62513527    -2.14140898
 Cl                   -1.59681561     0.96317072    -0.40762476
 Cl                   -0.00781754    -0.63190099     1.65610757
 Cl                    1.46819341     1.17366431    -0.31734375
 H                     0.18020622    -2.48428363     0.08594459
 
 ==============================================================================
                                internuclear distances
 ------------------------------------------------------------------------------
       center one      |      center two      | atomic units |  angstroms
 ------------------------------------------------------------------------------
    2 C                |   1 C                |     2.82065  |     1.49262
    3 O                |   2 C                |     2.43253  |     1.28724
    4 H                |   2 C                |     2.06383  |     1.09213
    5 Cl               |   1 C                |     3.48172  |     1.84245
    6 Cl               |   1 C                |     3.47194  |     1.83727
    7 Cl               |   1 C                |     3.48514  |     1.84426
    8 H                |   3 O                |     1.91244  |     1.01202
 ------------------------------------------------------------------------------
                         number of included internuclear distances:          7
 ==============================================================================



 ==============================================================================
                                 internuclear angles
 ------------------------------------------------------------------------------
        center 1       |       center 2       |       center 3       |  degrees
 ------------------------------------------------------------------------------
    2 C                |   1 C                |   5 Cl               |   103.65
    2 C                |   1 C                |   6 Cl               |   111.93
    2 C                |   1 C                |   7 Cl               |   103.28
    5 Cl               |   1 C                |   6 Cl               |   112.20
    5 Cl               |   1 C                |   7 Cl               |   112.96
    6 Cl               |   1 C                |   7 Cl               |   112.16
    1 C                |   2 C                |   3 O                |   125.01
    1 C                |   2 C                |   4 H                |   119.64
    3 O                |   2 C                |   4 H                |   115.35
    2 C                |   3 O                |   8 H                |   115.82
 ------------------------------------------------------------------------------
                            number of included internuclear angles:         10
 ==============================================================================



                              Aldehyde and Ketone set
                              -----------------------
 
                                 NWChem DFT Module
                                 -----------------
 
 
                              Aldehyde and Ketone set
 
 
                      Basis "ao basis" -> "ao basis" (spherical)
                      -----
  C (Carbon)
  ----------
            Exponent  Coefficients 
       -------------- ---------------------------------------------------------
  1 S  8.50603840E+03  0.000534
  1 S  1.27573290E+03  0.004125
  1 S  2.90311870E+02  0.021171
  1 S  8.20562000E+01  0.082418
  1 S  2.64796410E+01  0.240129
 
  2 S  9.24145850E+00  1.000000
 
  3 S  3.36435300E+00  1.000000
 
  4 S  8.71741640E-01  1.000000
 
  5 S  3.63523520E-01  1.000000
 
  6 S  1.28731350E-01  1.000000
 
  7 P  3.47094960E+01  0.005330
  7 P  7.95908830E+00  0.035866
  7 P  2.37869720E+00  0.142003
  7 P  8.15400650E-01  0.342031
 
  8 P  2.89537850E-01  1.000000
 
  9 P  1.00847540E-01  1.000000
 
  O (Oxygen)
  ----------
            Exponent  Coefficients 
       -------------- ---------------------------------------------------------
  1 S  1.59026475E+04  0.000515
  1 S  2.38495378E+03  0.003982
  1 S  5.42719572E+02  0.020477
  1 S  1.53404079E+02  0.080262
  1 S  4.95457161E+01  0.237668
 
  2 S  1.73396499E+01  1.000000
 
  3 S  6.33033553E+00  1.000000
 
  4 S  1.69958822E+00  1.000000
 
  5 S  6.89544913E-01  1.000000
 
  6 S  2.39360282E-01  1.000000
 
  7 P  6.32705240E+01  0.006071
  7 P  1.46233123E+01  0.041948
  7 P  4.44895180E+00  0.161569
  7 P  1.52815132E+00  0.356828
 
  8 P  5.29973159E-01  1.000000
 
  9 P  1.75094460E-01  1.000000
 
  H (Hydrogen)
  ------------
            Exponent  Coefficients 
       -------------- ---------------------------------------------------------
  1 S  3.40613410E+01  0.006025
  1 S  5.12357460E+00  0.045021
  1 S  1.16466260E+00  0.201897
 
  2 S  3.27230410E-01  1.000000
 
  3 S  1.03072410E-01  1.000000
 
  Cl (Chlorine)
  -------------
            Exponent  Coefficients 
       -------------- ---------------------------------------------------------
  1 S  1.17805790E+05  0.000242
  1 S  1.76602650E+04  0.001874
  1 S  4.01859730E+03  0.009736
  1 S  1.13622310E+03  0.039495
  1 S  3.68120620E+02  0.127972
 
  2 S  1.30861540E+02  1.000000
 
  3 S  5.04790110E+01  0.428741
  3 S  2.09168050E+01  0.196685
 
  4 S  6.35313880E+00  1.000000
 
  5 S  2.49480140E+00  1.000000
 
  6 S  5.43359480E-01  1.000000
 
  7 S  1.94343660E-01  1.000000
 
  8 P  6.81068790E+02  0.002366
  8 P  1.61113590E+02  0.018941
  8 P  5.13866370E+01  0.087845
  8 P  1.89585120E+01  0.257074
  8 P  3.00351580E+00  0.371524
 
  9 P  7.45652930E+00  1.000000
 
 10 P  1.06093610E+00  1.000000
 
 11 P  3.94520230E-01  1.000000
 
 12 P  1.33232790E-01  1.000000
 


 Summary of "ao basis" -> "ao basis" (spherical)
 ------------------------------------------------------------------------------
       Tag                 Description            Shells   Functions and Types
 ---------------- ------------------------------  ------  ---------------------
 C                        ahlrichs vtz               9       15   6s3p
 O                        ahlrichs vtz               9       15   6s3p
 H                        ahlrichs vtz               3        3   3s
 Cl                       ahlrichs vtz              12       22   7s5p




 Summary of "ao basis" -> "ao basis" (spherical)
 ------------------------------------------------------------------------------
       Tag                 Description            Shells   Functions and Types
 ---------------- ------------------------------  ------  ---------------------
 C                        ahlrichs vtz               9       15   6s3p
 O                        ahlrichs vtz               9       15   6s3p
 H                        ahlrichs vtz               3        3   3s
 Cl                       ahlrichs vtz              12       22   7s5p


  Caching 1-el integrals 
 
            General Information
            -------------------
          SCF calculation type: DFT
          Wavefunction type:  closed shell.
          No. of atoms     :     8
          No. of electrons :    72
           Alpha electrons :    36
            Beta electrons :    36
          Charge           :     1
          Spin multiplicity:     1
          Use of symmetry is: off; symmetry adaption is: off
          Maximum number of iterations: ***
          This is a Direct SCF calculation.
          AO basis - number of functions:   117
                     number of shells:    69
          Convergence on energy requested:  1.00D-08
          Convergence on density requested:  1.00D-07
          Convergence on gradient requested:  1.00D-06
 
              XC Information
              --------------
                        PBE96 Method XC Functional
          PerdewBurkeErnzerhof Exchange Functional  1.000          
            Perdew 1991 LDA Correlation Functional  1.000 local    
           PerdewBurkeErnz. Correlation Functional  1.000 non-local
 
             Grid Information
             ----------------
          Grid used for XC integration:  fine      
          Radial quadrature: Mura-Knowles        
          Angular quadrature: Lebedev. 
          Tag              B.-S. Rad. Rad. Pts. Rad. Cut. Ang. Pts.
          ---              ---------- --------- --------- ---------
          C                   0.70       70          10.0       590
          O                   0.60       70          10.0       590
          H                   0.35       60          11.0       590
          Cl                  1.00      123          11.0       770
          Grid pruning is: on 
          Number of quadrature shells:   699
          Spatial weights used:  Erf1
 
          Convergence Information
          -----------------------
          Convergence aids based upon iterative change in 
          total energy or number of iterations. 
          Levelshifting, if invoked, occurs when the 
          HOMO/LUMO gap drops below (HL_TOL):  1.00D-02
          DIIS, if invoked, will attempt to extrapolate 
          using up to (NFOCK): 10 stored Fock matrices.

                    Damping( 0%)  Levelshifting(0.5)       DIIS
                  --------------- ------------------- ---------------
          dE  on:    start            ASAP                start   
          dE off:    2 iters        *** iters           *** iters 

 
      Screening Tolerance Information
      -------------------------------
          Density screening/tol_rho:  1.00D-12
          AO Gaussian exp screening on grid/accAOfunc:  18
          CD Gaussian exp screening on grid/accCDfunc:  20
          XC Gaussian exp screening on grid/accXCfunc:  20
          Schwarz screening/accCoul:  1.00D-12

      Dispersion Parameters
      ---------------------

           DFT-D3BJ Model   
          s6 scale factor  :        1.000000000000
          s8 scale factor  :        0.787500000000
          a1 parameter     :        0.428900000000
          a2 parameter     :        4.440700000000
              vdW contrib  :       -0.009592683126


 Forcing the number of linearly dependent vectors to be  0
 
      Superposition of Atomic Density Guess
      -------------------------------------
 
 Sum of atomic energies:       -1529.56946856
   Time after variat. SCF:      0.2
   Time prior to 1st pass:      0.2

 Grid_pts file          = ./11_Cl3CCHOH.gridpts.00
 Record size in doubles =  12289        No. of grid_pts per rec  =   3070
 Max. records in memory =     14        Max. recs in file   =  67550051

 Grid integrated density:      73.000001508742
 Requested integration accuracy:   0.10E-06

           Memory utilization after 1st SCF pass: 
           Heap Space remaining (MW):        0.00                  96
          Stack Space remaining (MW):      288.36           288357508

   convergence    iter        energy       DeltaE   RMS-Dens  Diis-err    time
 ---------------- ----- ----------------- --------- --------- ---------  ------
 d= 0,ls=0.0,diis     1  -1533.3491014329 -1.97D+03  2.15D-02  5.04D+01     0.3
 d= 0,ls=0.0,diis     2  -1532.0990909911  1.25D+00  1.60D-02  4.73D-01     0.6
 d= 0,ls=0.0,diis     3  -1531.7125163476  3.87D-01  9.31D-03  3.99D+00     0.8
 d= 0,ls=0.0,diis     4  -1532.1626236379 -4.50D-01  2.09D-03  1.20D-02     1.1
 d= 0,ls=0.0,diis     5  -1532.1605068200  2.12D-03  8.85D-04  3.80D-02     1.4
 d= 0,ls=0.0,diis     6  -1532.1649746528 -4.47D-03  1.28D-04  2.94D-04     1.6
 d= 0,ls=0.0,diis     7  -1532.1650129574 -3.83D-05  3.67D-05  1.22D-05     1.9
 d= 0,ls=0.0,diis     8  -1532.1650142799 -1.32D-06  1.49D-05  3.42D-06     2.1
 d= 0,ls=0.0,diis     9  -1532.1650147957 -5.16D-07  4.62D-06  1.84D-07     2.4
 d= 0,ls=0.0,diis    10  -1532.1650148206 -2.49D-08  1.82D-06  3.66D-08     2.6
 d= 0,ls=0.0,diis    11  -1532.1650148258 -5.13D-09  5.98D-07  3.34D-09     2.9
 d= 0,ls=0.0,diis    12  -1532.1650148262 -4.50D-10  1.96D-07  5.62D-10     3.1
 d= 0,ls=0.0,diis    13  -1532.1650148263 -8.57D-11  2.61D-08  6.01D-12     3.4


         Total DFT energy =    -1532.165014826303
      One electron energy =    -2963.052903547600
           Coulomb energy =     1099.401459836744
          Exchange energy =     -100.985513260449
       Correlation energy =       -2.702223710037
 Nuclear repulsion energy =      435.183758538165

    Dispersion correction =       -0.009592683126

 Numeric. integr. density =       72.000001916281

     Total iterative time =      3.2s


 
                       DFT Final Molecular Orbital Analysis
                       ------------------------------------
 
 Vector    1  Occ=2.000000D+00  E=-1.009180D+02
              MO Center= -7.8D-03, -6.3D-01,  1.7D+00, r^2= 3.1D-03
   Bfn.  Coefficient  Atom+Function         Bfn.  Coefficient  Atom+Function  
  ----- ------------  ---------------      ----- ------------  ---------------
    73      0.598195  6 Cl s                 72      0.326071  6 Cl s          
    71      0.184384  6 Cl s          
 
 Vector    2  Occ=2.000000D+00  E=-1.009168D+02
              MO Center=  1.5D+00,  1.2D+00, -3.2D-01, r^2= 3.1D-03
   Bfn.  Coefficient  Atom+Function         Bfn.  Coefficient  Atom+Function  
  ----- ------------  ---------------      ----- ------------  ---------------
    95      0.598197  7 Cl s                 94      0.326071  7 Cl s          
    93      0.184384  7 Cl s          
 
 Vector    3  Occ=2.000000D+00  E=-1.009166D+02
              MO Center= -1.6D+00,  9.6D-01, -4.1D-01, r^2= 3.1D-03
   Bfn.  Coefficient  Atom+Function         Bfn.  Coefficient  Atom+Function  
  ----- ------------  ---------------      ----- ------------  ---------------
    51      0.598197  5 Cl s                 50      0.326071  5 Cl s          
    49      0.184384  5 Cl s          
 
 Vector    4  Occ=2.000000D+00  E=-1.912749D+01
              MO Center=  1.9D-01, -2.2D+00, -8.8D-01, r^2= 1.5D-02
   Bfn.  Coefficient  Atom+Function         Bfn.  Coefficient  Atom+Function  
  ----- ------------  ---------------      ----- ------------  ---------------
    32      0.424636  3 O  s                 33      0.366228  3 O  s          
    31      0.299517  3 O  s                 34      0.055243  3 O  s          
 
 Vector    5  Occ=2.000000D+00  E=-1.032058D+01
              MO Center= -9.5D-03,  1.1D-01, -2.5D-02, r^2= 2.8D-02
   Bfn.  Coefficient  Atom+Function         Bfn.  Coefficient  Atom+Function  
  ----- ------------  ---------------      ----- ------------  ---------------
     2      0.424621  1 C  s                  3      0.359513  1 C  s          
     1      0.308930  1 C  s                  4      0.056396  1 C  s          
 
 Vector    6  Occ=2.000000D+00  E=-1.030451D+01
              MO Center=  9.9D-02, -9.3D-01, -1.1D+00, r^2= 2.8D-02
   Bfn.  Coefficient  Atom+Function         Bfn.  Coefficient  Atom+Function  
  ----- ------------  ---------------      ----- ------------  ---------------
    17      0.424213  2 C  s                 18      0.359733  2 C  s          
    16      0.308793  2 C  s                 19      0.056768  2 C  s          
 
 Vector    7  Occ=2.000000D+00  E=-9.421586D+00
              MO Center= -7.8D-03, -6.3D-01,  1.7D+00, r^2= 6.7D-02
   Bfn.  Coefficient  Atom+Function         Bfn.  Coefficient  Atom+Function  
  ----- ------------  ---------------      ----- ------------  ---------------
    75      0.583191  6 Cl s                 74      0.523084  6 Cl s          
    73     -0.293207  6 Cl s                 72     -0.113714  6 Cl s          
    76      0.060388  6 Cl s                 71     -0.054084  6 Cl s          
    77     -0.029059  6 Cl s          
 
 Vector    8  Occ=2.000000D+00  E=-9.419794D+00
              MO Center=  1.5D+00,  1.2D+00, -3.2D-01, r^2= 6.9D-02
   Bfn.  Coefficient  Atom+Function         Bfn.  Coefficient  Atom+Function  
  ----- ------------  ---------------      ----- ------------  ---------------
    97      0.583339  7 Cl s                 96      0.522967  7 Cl s          
    95     -0.293169  7 Cl s                 94     -0.113707  7 Cl s          
    98      0.059681  7 Cl s                 93     -0.054078  7 Cl s          
    99     -0.027281  7 Cl s          
 
 Vector    9  Occ=2.000000D+00  E=-9.419607D+00
              MO Center= -1.6D+00,  9.6D-01, -4.1D-01, r^2= 6.9D-02
   Bfn.  Coefficient  Atom+Function         Bfn.  Coefficient  Atom+Function  
  ----- ------------  ---------------      ----- ------------  ---------------
    53      0.583335  5 Cl s                 52      0.522968  5 Cl s          
    51     -0.293170  5 Cl s                 50     -0.113707  5 Cl s          
    54      0.059702  5 Cl s                 49     -0.054078  5 Cl s          
    55     -0.027360  5 Cl s          
 
 Vector   10  Occ=2.000000D+00  E=-7.249923D+00
              MO Center= -7.8D-03, -6.3D-01,  1.7D+00, r^2= 5.8D-02
   Bfn.  Coefficient  Atom+Function         Bfn.  Coefficient  Atom+Function  
  ----- ------------  ---------------      ----- ------------  ---------------
    80      0.513644  6 Cl pz                83      0.387944  6 Cl pz         
    79     -0.233714  6 Cl py                82     -0.176521  6 Cl py         
    86      0.065355  6 Cl pz                85     -0.029734  6 Cl py         
 
 Vector   11  Occ=2.000000D+00  E=-7.248415D+00
              MO Center=  1.5D+00,  1.2D+00, -3.2D-01, r^2= 5.8D-02
   Bfn.  Coefficient  Atom+Function         Bfn.  Coefficient  Atom+Function  
  ----- ------------  ---------------      ----- ------------  ---------------
   100      0.445323  7 Cl px               101      0.338159  7 Cl py         
   103      0.336335  7 Cl px               104      0.255397  7 Cl py         
   102     -0.076151  7 Cl pz               105     -0.057515  7 Cl pz         
   106      0.056632  7 Cl px               107      0.043010  7 Cl py         
 
 Vector   12  Occ=2.000000D+00  E=-7.248245D+00
              MO Center= -1.6D+00,  9.6D-01, -4.1D-01, r^2= 5.8D-02
   Bfn.  Coefficient  Atom+Function         Bfn.  Coefficient  Atom+Function  
  ----- ------------  ---------------      ----- ------------  ---------------
    56      0.482126  5 Cl px                59      0.364131  5 Cl px         
    57     -0.274166  5 Cl py                60     -0.207066  5 Cl py         
    58      0.104162  5 Cl pz                61      0.078670  5 Cl pz         
    62      0.061316  5 Cl px                63     -0.034874  5 Cl py         
 
 Vector   13  Occ=2.000000D+00  E=-7.235296D+00
              MO Center= -7.9D-03, -6.3D-01,  1.7D+00, r^2= 5.8D-02
   Bfn.  Coefficient  Atom+Function         Bfn.  Coefficient  Atom+Function  
  ----- ------------  ---------------      ----- ------------  ---------------
    79      0.512439  6 Cl py                82      0.386854  6 Cl py         
    80      0.233220  6 Cl pz                83      0.176062  6 Cl pz         
    85      0.064044  6 Cl py                78     -0.044403  6 Cl px         
    81     -0.033521  6 Cl px                86      0.029147  6 Cl pz         
 
 Vector   14  Occ=2.000000D+00  E=-7.233756D+00
              MO Center= -7.8D-03, -6.3D-01,  1.7D+00, r^2= 5.8D-02
   Bfn.  Coefficient  Atom+Function         Bfn.  Coefficient  Atom+Function  
  ----- ------------  ---------------      ----- ------------  ---------------
    78      0.563069  6 Cl px                81      0.425054  6 Cl px         
    84      0.070188  6 Cl px                79      0.040808  6 Cl py         
    82      0.030805  6 Cl py         
 
 Vector   15  Occ=2.000000D+00  E=-7.233661D+00
              MO Center=  1.5D+00,  1.2D+00, -3.2D-01, r^2= 5.8D-02
   Bfn.  Coefficient  Atom+Function         Bfn.  Coefficient  Atom+Function  
  ----- ------------  ---------------      ----- ------------  ---------------
   101      0.370666  7 Cl py               102      0.365579  7 Cl pz         
   104      0.279817  7 Cl py               105      0.275978  7 Cl pz         
   100     -0.218965  7 Cl px               103     -0.165299  7 Cl px         
   107      0.046275  7 Cl py               108      0.045639  7 Cl pz         
   106     -0.027324  7 Cl px         
 
 Vector   16  Occ=2.000000D+00  E=-7.233433D+00
              MO Center= -1.6D+00,  9.6D-01, -4.1D-01, r^2= 5.8D-02
   Bfn.  Coefficient  Atom+Function         Bfn.  Coefficient  Atom+Function  
  ----- ------------  ---------------      ----- ------------  ---------------
    57      0.396773  5 Cl py                58      0.375026  5 Cl pz         
    60      0.299526  5 Cl py                61      0.283109  5 Cl pz         
    56      0.144617  5 Cl px                59      0.109173  5 Cl px         
    63      0.049532  5 Cl py                64      0.046817  5 Cl pz         
 
 Vector   17  Occ=2.000000D+00  E=-7.231883D+00
              MO Center=  1.5D+00,  1.2D+00, -3.2D-01, r^2= 5.8D-02
   Bfn.  Coefficient  Atom+Function         Bfn.  Coefficient  Atom+Function  
  ----- ------------  ---------------      ----- ------------  ---------------
   102      0.423745  7 Cl pz               105      0.319870  7 Cl pz         
   100      0.269105  7 Cl px               101     -0.258963  7 Cl py         
   103      0.203138  7 Cl px               104     -0.195482  7 Cl py         
   108      0.052796  7 Cl pz               106      0.033529  7 Cl px         
   107     -0.032257  7 Cl py         
 
 Vector   18  Occ=2.000000D+00  E=-7.231707D+00
              MO Center= -1.6D+00,  9.6D-01, -4.1D-01, r^2= 5.8D-02
   Bfn.  Coefficient  Atom+Function         Bfn.  Coefficient  Atom+Function  
  ----- ------------  ---------------      ----- ------------  ---------------
    58      0.409271  5 Cl pz                61      0.308944  5 Cl pz         
    57     -0.293733  5 Cl py                56     -0.255454  5 Cl px         
    60     -0.221728  5 Cl py                59     -0.192833  5 Cl px         
    64      0.050995  5 Cl pz                63     -0.036590  5 Cl py         
    62     -0.031830  5 Cl px         
 
 Vector   19  Occ=2.000000D+00  E=-1.326083D+00
              MO Center=  1.6D-01, -1.9D+00, -8.0D-01, r^2= 5.5D-01
   Bfn.  Coefficient  Atom+Function         Bfn.  Coefficient  Atom+Function  
  ----- ------------  ---------------      ----- ------------  ---------------
    35      0.518391  3 O  s                 36      0.251802  3 O  s          
    20      0.188089  2 C  s                 33     -0.140873  3 O  s          
    32     -0.117582  3 O  s                 23     -0.114750  2 C  py         
    34      0.110765  3 O  s                 38      0.102813  3 O  py         
    41      0.098216  3 O  py                18     -0.068816  2 C  s          
 
 Vector   20  Occ=2.000000D+00  E=-1.092925D+00
              MO Center= -1.2D-02,  1.5D-01, -7.9D-03, r^2= 2.1D+00
   Bfn.  Coefficient  Atom+Function         Bfn.  Coefficient  Atom+Function  
  ----- ------------  ---------------      ----- ------------  ---------------
     5      0.397389  1 C  s                 54      0.241906  5 Cl s          
    98      0.241869  7 Cl s                 76      0.236780  6 Cl s          
    77      0.163797  6 Cl s                 55      0.161689  5 Cl s          
    99      0.161451  7 Cl s                  6      0.158646  1 C  s          
    53     -0.147117  5 Cl s                 97     -0.147075  7 Cl s          
 
 Vector   21  Occ=2.000000D+00  E=-9.887285D-01
              MO Center= -7.8D-03, -2.0D-01,  8.4D-01, r^2= 2.5D+00
   Bfn.  Coefficient  Atom+Function         Bfn.  Coefficient  Atom+Function  
  ----- ------------  ---------------      ----- ------------  ---------------
    76      0.516736  6 Cl s                 77      0.435225  6 Cl s          
    75     -0.317741  6 Cl s                 98     -0.218647  7 Cl s          
    54     -0.214937  5 Cl s                 74     -0.194893  6 Cl s          
    99     -0.178155  7 Cl s                 55     -0.175060  5 Cl s          
    97      0.133523  7 Cl s                 53      0.131247  5 Cl s          
 
 Vector   22  Occ=2.000000D+00  E=-9.837786D-01
              MO Center= -5.9D-02,  8.7D-01, -3.1D-01, r^2= 2.7D+00
   Bfn.  Coefficient  Atom+Function         Bfn.  Coefficient  Atom+Function  
  ----- ------------  ---------------      ----- ------------  ---------------
    54      0.436918  5 Cl s                 98     -0.434399  7 Cl s          
    55      0.356249  5 Cl s                 99     -0.354300  7 Cl s          
    53     -0.266782  5 Cl s                 97      0.265249  7 Cl s          
    52     -0.163116  5 Cl s                 96      0.162186  7 Cl s          
    10     -0.127743  1 C  px                 7     -0.109296  1 C  px         
 
 Vector   23  Occ=2.000000D+00  E=-9.288446D-01
              MO Center=  9.0D-02, -8.9D-01, -7.1D-01, r^2= 3.0D+00
   Bfn.  Coefficient  Atom+Function         Bfn.  Coefficient  Atom+Function  
  ----- ------------  ---------------      ----- ------------  ---------------
    20      0.420631  2 C  s                 98     -0.217887  7 Cl s          
    54     -0.215684  5 Cl s                 99     -0.180614  7 Cl s          
    55     -0.178701  5 Cl s                 35     -0.162174  3 O  s          
    38      0.158399  3 O  py                36     -0.141996  3 O  s          
    39     -0.142171  3 O  pz                97      0.131721  7 Cl s          
 
 Vector   24  Occ=2.000000D+00  E=-8.498214D-01
              MO Center=  8.2D-02, -9.2D-01, -4.5D-01, r^2= 3.1D+00
   Bfn.  Coefficient  Atom+Function         Bfn.  Coefficient  Atom+Function  
  ----- ------------  ---------------      ----- ------------  ---------------
     5      0.233481  1 C  s                 39      0.210323  3 O  pz         
    23      0.202942  2 C  py                76     -0.185637  6 Cl s          
    54     -0.182477  5 Cl s                 98     -0.182898  7 Cl s          
    42      0.179910  3 O  pz                99     -0.172156  7 Cl s          
    55     -0.171265  5 Cl s                 77     -0.168712  6 Cl s          
 
 Vector   25  Occ=2.000000D+00  E=-7.430691D-01
              MO Center=  9.0D-02, -9.1D-01, -8.3D-01, r^2= 2.7D+00
   Bfn.  Coefficient  Atom+Function         Bfn.  Coefficient  Atom+Function  
  ----- ------------  ---------------      ----- ------------  ---------------
    24      0.231301  2 C  pz                77     -0.208613  6 Cl s          
    27      0.207253  2 C  pz                38      0.203806  3 O  py         
     5      0.182704  1 C  s                 23     -0.178164  2 C  py         
    41      0.165008  3 O  py                76     -0.164741  6 Cl s          
    46     -0.145811  4 H  s                 20     -0.133997  2 C  s          
 
 Vector   26  Occ=2.000000D+00  E=-7.072810D-01
              MO Center=  2.0D-02, -2.5D-01, -2.6D-01, r^2= 4.0D+00
   Bfn.  Coefficient  Atom+Function         Bfn.  Coefficient  Atom+Function  
  ----- ------------  ---------------      ----- ------------  ---------------
     6      0.327835  1 C  s                  5      0.303755  1 C  s          
    55     -0.209520  5 Cl s                 99     -0.206580  7 Cl s          
    27     -0.164082  2 C  pz                 8      0.163183  1 C  py         
    54     -0.152287  5 Cl s                 24     -0.149677  2 C  pz         
    98     -0.150388  7 Cl s                 39     -0.147633  3 O  pz         
 
 Vector   27  Occ=2.000000D+00  E=-6.830907D-01
              MO Center=  8.4D-02, -8.2D-01, -6.8D-01, r^2= 3.3D+00
   Bfn.  Coefficient  Atom+Function         Bfn.  Coefficient  Atom+Function  
  ----- ------------  ---------------      ----- ------------  ---------------
    37      0.293516  3 O  px                40      0.254236  3 O  px         
    22      0.226418  2 C  px                25      0.208017  2 C  px         
    10      0.181891  1 C  px                99     -0.180785  7 Cl s          
    55      0.179346  5 Cl s                  7      0.161802  1 C  px         
    43      0.127492  3 O  px                98     -0.115532  7 Cl s          
 
 Vector   28  Occ=2.000000D+00  E=-6.327591D-01
              MO Center= -1.2D-02, -1.1D-01,  4.5D-01, r^2= 3.7D+00
   Bfn.  Coefficient  Atom+Function         Bfn.  Coefficient  Atom+Function  
  ----- ------------  ---------------      ----- ------------  ---------------
    89      0.275057  6 Cl pz                12     -0.234862  1 C  pz         
    77      0.231088  6 Cl s                 11      0.199382  1 C  py         
     9     -0.195890  1 C  pz                65      0.166375  5 Cl px         
   109     -0.159644  7 Cl px                 8      0.152729  1 C  py         
    76      0.148530  6 Cl s                 86      0.137752  6 Cl pz         
 
 Vector   29  Occ=2.000000D+00  E=-6.285587D-01
              MO Center=  4.1D-02, -3.2D-01, -4.6D-01, r^2= 4.4D+00
   Bfn.  Coefficient  Atom+Function         Bfn.  Coefficient  Atom+Function  
  ----- ------------  ---------------      ----- ------------  ---------------
    37      0.290945  3 O  px                10     -0.261223  1 C  px         
    40      0.255740  3 O  px                 7     -0.204826  1 C  px         
    55     -0.156806  5 Cl s                 99      0.157532  7 Cl s          
    65      0.155939  5 Cl px               110      0.147910  7 Cl py         
   109      0.142773  7 Cl px                43      0.138073  3 O  px         
 
 Vector   30  Occ=2.000000D+00  E=-5.993507D-01
              MO Center=  1.4D-01, -1.5D+00, -8.8D-01, r^2= 2.6D+00
   Bfn.  Coefficient  Atom+Function         Bfn.  Coefficient  Atom+Function  
  ----- ------------  ---------------      ----- ------------  ---------------
    39      0.300752  3 O  pz                42      0.260533  3 O  pz         
    38      0.199702  3 O  py                35     -0.182125  3 O  s          
    11      0.172744  1 C  py                36     -0.168913  3 O  s          
    47      0.165642  4 H  s                 41      0.161893  3 O  py         
     8      0.143928  1 C  py                24     -0.140293  2 C  pz         
 
 Vector   31  Occ=2.000000D+00  E=-5.172464D-01
              MO Center= -5.8D-02,  2.4D-01,  5.0D-01, r^2= 4.2D+00
   Bfn.  Coefficient  Atom+Function         Bfn.  Coefficient  Atom+Function  
  ----- ------------  ---------------      ----- ------------  ---------------
    87      0.361508  6 Cl px                67     -0.255523  5 Cl pz         
   111      0.252103  7 Cl pz                90      0.197596  6 Cl px         
    84      0.165148  6 Cl px                13      0.151667  1 C  px         
    70     -0.142488  5 Cl pz               114      0.141217  7 Cl pz         
    65      0.122527  5 Cl px               110      0.118326  7 Cl py         
 
 Vector   32  Occ=2.000000D+00  E=-5.164032D-01
              MO Center=  1.2D-02, -1.1D-01,  1.0D+00, r^2= 3.4D+00
   Bfn.  Coefficient  Atom+Function         Bfn.  Coefficient  Atom+Function  
  ----- ------------  ---------------      ----- ------------  ---------------
    88      0.360636  6 Cl py                89      0.301975  6 Cl pz         
    91      0.203403  6 Cl py                21      0.194864  2 C  s          
    92      0.170597  6 Cl pz                85      0.166518  6 Cl py         
    15      0.150066  1 C  pz               111      0.146578  7 Cl pz         
    66     -0.130719  5 Cl py                86      0.123434  6 Cl pz         
 
 Vector   33  Occ=2.000000D+00  E=-5.054007D-01
              MO Center= -2.9D-02,  7.1D-01, -4.6D-02, r^2= 4.1D+00
   Bfn.  Coefficient  Atom+Function         Bfn.  Coefficient  Atom+Function  
  ----- ------------  ---------------      ----- ------------  ---------------
    66      0.358170  5 Cl py               110      0.357083  7 Cl py         
    88      0.228327  6 Cl py                69      0.182845  5 Cl py         
   113      0.183041  7 Cl py                14      0.159760  1 C  py         
    63      0.157222  5 Cl py               107      0.155799  7 Cl py         
    20      0.149415  2 C  s                 91      0.128058  6 Cl py         
 
 Vector   34  Occ=2.000000D+00  E=-4.963474D-01
              MO Center= -5.1D-03,  5.8D-01, -4.6D-03, r^2= 4.3D+00
   Bfn.  Coefficient  Atom+Function         Bfn.  Coefficient  Atom+Function  
  ----- ------------  ---------------      ----- ------------  ---------------
   109      0.281830  7 Cl px                87      0.258660  6 Cl px         
    65      0.248088  5 Cl px                66      0.197874  5 Cl py         
   111     -0.183994  7 Cl pz                67      0.171910  5 Cl pz         
   110     -0.159651  7 Cl py               112      0.149831  7 Cl px         
    68      0.129919  5 Cl px                13      0.126528  1 C  px         
 
 Vector   35  Occ=2.000000D+00  E=-4.945443D-01
              MO Center= -1.1D-01,  6.6D-01, -1.9D-02, r^2= 4.2D+00
   Bfn.  Coefficient  Atom+Function         Bfn.  Coefficient  Atom+Function  
  ----- ------------  ---------------      ----- ------------  ---------------
    67      0.357335  5 Cl pz               111      0.342360  7 Cl pz         
    88     -0.256254  6 Cl py                70      0.185813  5 Cl pz         
   114      0.176245  7 Cl pz                64      0.160919  5 Cl pz         
    91     -0.158295  6 Cl py               108      0.154316  7 Cl pz         
    20      0.121180  2 C  s                 15      0.113446  1 C  pz         
 
 Vector   36  Occ=2.000000D+00  E=-4.762481D-01
              MO Center= -5.2D-02,  5.8D-01,  2.2D-01, r^2= 4.3D+00
   Bfn.  Coefficient  Atom+Function         Bfn.  Coefficient  Atom+Function  
  ----- ------------  ---------------      ----- ------------  ---------------
    87      0.322190  6 Cl px               111     -0.238947  7 Cl pz         
    67      0.229155  5 Cl pz                66     -0.208684  5 Cl py         
    90      0.194067  6 Cl px               109     -0.190810  7 Cl px         
   110      0.182543  7 Cl py                65     -0.178142  5 Cl px         
    84      0.146993  6 Cl px               114     -0.141854  7 Cl pz         
 
 Vector   37  Occ=0.000000D+00  E=-3.943719D-01
              MO Center=  8.6D-02, -7.8D-01, -8.9D-01, r^2= 2.7D+00
   Bfn.  Coefficient  Atom+Function         Bfn.  Coefficient  Atom+Function  
  ----- ------------  ---------------      ----- ------------  ---------------
    25      0.438367  2 C  px                22      0.403942  2 C  px         
    37     -0.273668  3 O  px                43     -0.244917  3 O  px         
    40     -0.238133  3 O  px                28      0.234601  2 C  px         
   110      0.193341  7 Cl py                66     -0.179376  5 Cl py         
   113      0.136753  7 Cl py                69     -0.128155  5 Cl py         
 
 Vector   38  Occ=0.000000D+00  E=-3.002030D-01
              MO Center= -3.6D-02,  4.6D-01,  2.4D-01, r^2= 3.5D+00
   Bfn.  Coefficient  Atom+Function         Bfn.  Coefficient  Atom+Function  
  ----- ------------  ---------------      ----- ------------  ---------------
     6      1.048940  1 C  s                  5      0.580230  1 C  s          
    68     -0.304271  5 Cl px               112      0.298162  7 Cl px         
    99     -0.278110  7 Cl s                 55     -0.276096  5 Cl s          
    65     -0.272803  5 Cl px                77     -0.272398  6 Cl s          
    21     -0.269583  2 C  s                109      0.263759  7 Cl px         
 
 Vector   39  Occ=0.000000D+00  E=-2.676174D-01
              MO Center=  2.2D-03, -1.6D-01,  2.7D-01, r^2= 3.4D+00
   Bfn.  Coefficient  Atom+Function         Bfn.  Coefficient  Atom+Function  
  ----- ------------  ---------------      ----- ------------  ---------------
    77      0.499442  6 Cl s                 92     -0.425105  6 Cl pz         
    12     -0.397418  1 C  pz                36      0.376637  3 O  s          
    89     -0.374014  6 Cl pz                11      0.364781  1 C  py         
    15     -0.341132  1 C  pz                 9     -0.290448  1 C  pz         
    48     -0.255806  4 H  s                  8      0.253168  1 C  py         
 
 Vector   40  Occ=0.000000D+00  E=-2.336180D-01
              MO Center= -2.8D-02,  3.4D-01, -2.3D-01, r^2= 3.1D+00
   Bfn.  Coefficient  Atom+Function         Bfn.  Coefficient  Atom+Function  
  ----- ------------  ---------------      ----- ------------  ---------------
    10      0.637070  1 C  px                13      0.623239  1 C  px         
    55      0.484052  5 Cl s                 99     -0.479125  7 Cl s          
     7      0.438275  1 C  px                28     -0.353663  2 C  px         
    68      0.293475  5 Cl px               113      0.268928  7 Cl py         
   112      0.264057  7 Cl px                65      0.240937  5 Cl px         
 
 Vector   41  Occ=0.000000D+00  E=-2.146949D-01
              MO Center=  1.6D-01, -2.3D+00,  8.6D-02, r^2= 2.9D+00
   Bfn.  Coefficient  Atom+Function         Bfn.  Coefficient  Atom+Function  
  ----- ------------  ---------------      ----- ------------  ---------------
   117      1.095428  8 H  s                 36     -0.761725  3 O  s          
   116      0.451528  8 H  s                 21      0.331308  2 C  s          
    48     -0.323422  4 H  s                 45     -0.288734  3 O  pz         
    42     -0.232868  3 O  pz                35     -0.224315  3 O  s          
    39     -0.210742  3 O  pz                47     -0.183641  4 H  s          
 
 Vector   42  Occ=0.000000D+00  E=-1.395600D-01
              MO Center=  1.0D-01, -5.4D-01, -2.2D+00, r^2= 3.1D+00
   Bfn.  Coefficient  Atom+Function         Bfn.  Coefficient  Atom+Function  
  ----- ------------  ---------------      ----- ------------  ---------------
    21      2.131687  2 C  s                 48     -2.016909  4 H  s          
    30     -0.665962  2 C  pz                 6     -0.495004  1 C  s          
    15      0.437092  1 C  pz                20      0.435723  2 C  s          
    29      0.339282  2 C  py                47     -0.294406  4 H  s          
    12      0.272044  1 C  pz               117     -0.217507  8 H  s          
 
 Vector   43  Occ=0.000000D+00  E=-1.068275D-01
              MO Center=  4.0D-02, -4.1D-01, -4.4D-01, r^2= 3.7D+00
   Bfn.  Coefficient  Atom+Function         Bfn.  Coefficient  Atom+Function  
  ----- ------------  ---------------      ----- ------------  ---------------
    21      2.459248  2 C  s                  6     -2.170157  1 C  s          
    30      1.798377  2 C  pz                14      1.600249  1 C  py         
    48      1.505067  4 H  s                 15      0.736709  1 C  pz         
    36     -0.633183  3 O  s                 27      0.490561  2 C  pz         
    11      0.434442  1 C  py                44     -0.414631  3 O  py         
 
 Vector   44  Occ=0.000000D+00  E=-6.500613D-02
              MO Center=  1.0D-01, -1.0D+00, -9.7D-01, r^2= 5.7D+00
   Bfn.  Coefficient  Atom+Function         Bfn.  Coefficient  Atom+Function  
  ----- ------------  ---------------      ----- ------------  ---------------
    29      2.190665  2 C  py                 6     -1.897415  1 C  s          
    15      1.109674  1 C  pz                36      1.063804  3 O  s          
   117      0.956636  8 H  s                 30      0.841376  2 C  pz         
    14      0.737551  1 C  py                45     -0.536513  3 O  pz         
    44      0.451791  3 O  py                26      0.418711  2 C  py         
 
 Vector   45  Occ=0.000000D+00  E=-1.816082D-02
              MO Center=  7.6D-02, -8.2D-01, -8.3D-01, r^2= 5.3D+00
   Bfn.  Coefficient  Atom+Function         Bfn.  Coefficient  Atom+Function  
  ----- ------------  ---------------      ----- ------------  ---------------
    28      1.102209  2 C  px                13      0.755432  1 C  px         
    25     -0.596249  2 C  px                99     -0.442839  7 Cl s          
    55      0.437037  5 Cl s                113      0.259339  7 Cl py         
    68      0.252811  5 Cl px                22     -0.224235  2 C  px         
    69     -0.224208  5 Cl py               112      0.223416  7 Cl px         
 
 Vector   46  Occ=0.000000D+00  E= 3.093371D-02
              MO Center=  2.8D-02, -5.2D-01,  3.3D-01, r^2= 5.7D+00
   Bfn.  Coefficient  Atom+Function         Bfn.  Coefficient  Atom+Function  
  ----- ------------  ---------------      ----- ------------  ---------------
    30      2.520769  2 C  pz                15      1.810728  1 C  pz         
    48      1.791008  4 H  s                 21      1.765512  2 C  s          
     6     -1.246440  1 C  s                 20     -1.014980  2 C  s          
   117     -0.897715  8 H  s                 14      0.657795  1 C  py         
    77     -0.641008  6 Cl s                 27     -0.563978  2 C  pz         
 
 Vector   47  Occ=0.000000D+00  E= 4.888470D-02
              MO Center= -1.5D-02,  1.9D-01, -1.7D-01, r^2= 7.2D+00
   Bfn.  Coefficient  Atom+Function         Bfn.  Coefficient  Atom+Function  
  ----- ------------  ---------------      ----- ------------  ---------------
    30      2.353257  2 C  pz                14      2.104722  1 C  py         
    15     -1.953295  1 C  pz                48      1.378148  4 H  s          
    77      1.109287  6 Cl s                 21      0.842378  2 C  s          
    36     -0.836143  3 O  s                 55     -0.679900  5 Cl s          
    99     -0.647636  7 Cl s                117     -0.644450  8 H  s          
 
 Vector   48  Occ=0.000000D+00  E= 5.352393D-02
              MO Center=  1.6D-02, -2.2D-01, -3.2D-02, r^2= 4.8D+00
   Bfn.  Coefficient  Atom+Function         Bfn.  Coefficient  Atom+Function  
  ----- ------------  ---------------      ----- ------------  ---------------
    30     -1.541838  2 C  pz                15      1.439034  1 C  pz         
    21      1.171994  2 C  s                 14      1.140398  1 C  py         
    48     -1.103469  4 H  s                 20      0.585805  2 C  s          
    11     -0.418124  1 C  py                26     -0.411696  2 C  py         
    12     -0.407294  1 C  pz                 5      0.317326  1 C  s          
 
 Vector   49  Occ=0.000000D+00  E= 6.186132D-02
              MO Center=  3.2D-02, -1.2D-01, -3.5D-01, r^2= 6.9D+00
   Bfn.  Coefficient  Atom+Function         Bfn.  Coefficient  Atom+Function  
  ----- ------------  ---------------      ----- ------------  ---------------
    13      3.282204  1 C  px                28     -1.764316  2 C  px         
    99     -1.112762  7 Cl s                 55      1.096033  5 Cl s          
    10     -0.584948  1 C  px               113      0.422028  7 Cl py         
    69     -0.372461  5 Cl py                90     -0.368857  6 Cl px         
    68      0.340836  5 Cl px               112      0.317739  7 Cl px         
 
 Vector   50  Occ=0.000000D+00  E= 7.809294D-02
              MO Center=  1.2D-01, -1.2D+00, -1.2D+00, r^2= 3.4D+00
   Bfn.  Coefficient  Atom+Function         Bfn.  Coefficient  Atom+Function  
  ----- ------------  ---------------      ----- ------------  ---------------
    29      1.460377  2 C  py                14     -1.213313  1 C  py         
    26     -0.920078  2 C  py                47      0.676384  4 H  s          
    21     -0.601890  2 C  s                 30      0.603074  2 C  pz         
    20      0.562922  2 C  s                  6     -0.535721  1 C  s          
    41     -0.392282  3 O  py                15      0.364638  1 C  pz         
 
 Vector   51  Occ=0.000000D+00  E= 8.915150D-02
              MO Center=  1.5D-01, -2.1D+00,  1.7D-01, r^2= 5.9D+00
   Bfn.  Coefficient  Atom+Function         Bfn.  Coefficient  Atom+Function  
  ----- ------------  ---------------      ----- ------------  ---------------
     6      1.483905  1 C  s                117      1.356806  8 H  s          
   116     -1.211101  8 H  s                 92      0.735311  6 Cl pz         
    48     -0.568958  4 H  s                 44     -0.518897  3 O  py         
    15     -0.491373  1 C  pz                26     -0.436585  2 C  py         
    89     -0.364663  6 Cl pz                29      0.349392  2 C  py         
 
 Vector   52  Occ=0.000000D+00  E= 1.241563D-01
              MO Center=  4.9D-02, -5.5D-01,  4.5D-02, r^2= 8.2D+00
   Bfn.  Coefficient  Atom+Function         Bfn.  Coefficient  Atom+Function  
  ----- ------------  ---------------      ----- ------------  ---------------
     6      2.455613  1 C  s                 30     -1.563817  2 C  pz         
    92      1.023223  6 Cl pz                14     -1.017789  1 C  py         
    47     -0.956670  4 H  s                 15      0.875417  1 C  pz         
    77     -0.869705  6 Cl s                 29      0.825342  2 C  py         
    91     -0.593796  6 Cl py                 5     -0.519987  1 C  s          
 
 Vector   53  Occ=0.000000D+00  E= 1.430621D-01
              MO Center= -5.2D-02,  7.5D-01, -1.6D-01, r^2= 8.3D+00
   Bfn.  Coefficient  Atom+Function         Bfn.  Coefficient  Atom+Function  
  ----- ------------  ---------------      ----- ------------  ---------------
    68      0.725078  5 Cl px               112      0.658899  7 Cl px         
   113      0.638711  7 Cl py                90     -0.598979  6 Cl px         
    69     -0.529559  5 Cl py                87      0.504718  6 Cl px         
    43     -0.475839  3 O  px                70      0.437397  5 Cl pz         
    65     -0.394446  5 Cl px               114     -0.395615  7 Cl pz         
 
 Vector   54  Occ=0.000000D+00  E= 1.512282D-01
              MO Center= -4.2D-02,  7.2D-01, -6.0D-01, r^2= 7.8D+00
   Bfn.  Coefficient  Atom+Function         Bfn.  Coefficient  Atom+Function  
  ----- ------------  ---------------      ----- ------------  ---------------
     6      3.120305  1 C  s                 21     -1.237819  2 C  s          
    68     -1.106905  5 Cl px               112      1.061178  7 Cl px         
     5     -0.877444  1 C  s                 29     -0.759443  2 C  py         
    48     -0.724820  4 H  s                 47      0.702521  4 H  s          
    55     -0.626445  5 Cl s                 99     -0.624084  7 Cl s          
 
 Vector   55  Occ=0.000000D+00  E= 1.633546D-01
              MO Center= -3.9D-02,  3.6D-01,  8.8D-02, r^2= 6.9D+00
   Bfn.  Coefficient  Atom+Function         Bfn.  Coefficient  Atom+Function  
  ----- ------------  ---------------      ----- ------------  ---------------
    21     -1.902980  2 C  s                  6      1.784936  1 C  s          
    29     -1.247168  2 C  py                30      1.042043  2 C  pz         
    48      0.811833  4 H  s                 15     -0.731132  1 C  pz         
    92      0.723847  6 Cl pz                69      0.584785  5 Cl py         
     5     -0.559423  1 C  s                113      0.524821  7 Cl py         
 
 Vector   56  Occ=0.000000D+00  E= 1.979632D-01
              MO Center= -5.8D-03,  1.2D-01,  5.8D-01, r^2= 7.8D+00
   Bfn.  Coefficient  Atom+Function         Bfn.  Coefficient  Atom+Function  
  ----- ------------  ---------------      ----- ------------  ---------------
    13      2.512155  1 C  px                90     -1.402821  6 Cl px         
    99     -0.896561  7 Cl s                 55      0.871241  5 Cl s          
    68     -0.754455  5 Cl px                28     -0.725063  2 C  px         
   112     -0.703648  7 Cl px                87      0.638352  6 Cl px         
    65      0.555222  5 Cl px               109      0.507456  7 Cl px         
 
 Vector   57  Occ=0.000000D+00  E= 1.987670D-01
              MO Center= -3.3D-02,  2.0D-02,  3.7D-01, r^2= 7.8D+00
   Bfn.  Coefficient  Atom+Function         Bfn.  Coefficient  Atom+Function  
  ----- ------------  ---------------      ----- ------------  ---------------
    14      2.165164  1 C  py                 6     -1.009653  1 C  s          
    91     -1.006123  6 Cl py                15      0.919921  1 C  pz         
    69     -0.787591  5 Cl py               113     -0.776729  7 Cl py         
    70     -0.759197  5 Cl pz                30      0.717847  2 C  pz         
   114     -0.716202  7 Cl pz                92     -0.573994  6 Cl pz         
 
 Vector   58  Occ=0.000000D+00  E= 2.124233D-01
              MO Center= -3.9D-02,  4.4D-01, -6.9D-02, r^2= 8.2D+00
   Bfn.  Coefficient  Atom+Function         Bfn.  Coefficient  Atom+Function  
  ----- ------------  ---------------      ----- ------------  ---------------
    15      1.844614  1 C  pz                14     -1.391809  1 C  py         
    77     -1.038647  6 Cl s                114     -1.038232  7 Cl pz         
    70     -1.030547  5 Cl pz                91      0.769936  6 Cl py         
    21     -0.709050  2 C  s                 20      0.679651  2 C  s          
    48      0.615929  4 H  s                 88     -0.517697  6 Cl py         
 
 Vector   59  Occ=0.000000D+00  E= 2.148439D-01
              MO Center=  3.5D-02, -2.1D-01, -4.1D-01, r^2= 7.8D+00
   Bfn.  Coefficient  Atom+Function         Bfn.  Coefficient  Atom+Function  
  ----- ------------  ---------------      ----- ------------  ---------------
    43      0.881382  3 O  px                69     -0.811898  5 Cl py         
   113      0.794169  7 Cl py                13      0.595857  1 C  px         
    66      0.505993  5 Cl py                90     -0.501598  6 Cl px         
   110     -0.486906  7 Cl py                40     -0.388553  3 O  px         
    55      0.360888  5 Cl s                 99     -0.357380  7 Cl s          
 
 Vector   60  Occ=0.000000D+00  E= 2.346421D-01
              MO Center=  9.7D-02, -3.5D-01, -1.3D+00, r^2= 6.8D+00
   Bfn.  Coefficient  Atom+Function         Bfn.  Coefficient  Atom+Function  
  ----- ------------  ---------------      ----- ------------  ---------------
    21      5.281621  2 C  s                 48     -4.436134  4 H  s          
    30     -4.007079  2 C  pz                29      2.264012  2 C  py         
    20     -2.072097  2 C  s                 15      1.964544  1 C  pz         
    14     -1.675827  1 C  py               117      0.690616  8 H  s          
    77     -0.636390  6 Cl s                 55      0.604559  5 Cl s          
 
 Vector   61  Occ=0.000000D+00  E= 2.381771D-01
              MO Center= -5.7D-02,  5.3D-01,  1.7D-01, r^2= 7.9D+00
   Bfn.  Coefficient  Atom+Function         Bfn.  Coefficient  Atom+Function  
  ----- ------------  ---------------      ----- ------------  ---------------
    90      0.951928  6 Cl px               114     -0.948303  7 Cl pz         
    70      0.926220  5 Cl pz                87     -0.617339  6 Cl px         
   111      0.600740  7 Cl pz                67     -0.586144  5 Cl pz         
    28     -0.457092  2 C  px                69     -0.376167  5 Cl py         
    68     -0.370603  5 Cl px               112     -0.340927  7 Cl px         
 
 Vector   62  Occ=0.000000D+00  E= 2.543511D-01
              MO Center=  6.9D-02, -4.3D-01, -4.4D-01, r^2= 7.9D+00
   Bfn.  Coefficient  Atom+Function         Bfn.  Coefficient  Atom+Function  
  ----- ------------  ---------------      ----- ------------  ---------------
    21      2.457326  2 C  s                 48     -1.384074  4 H  s          
    14      1.223900  1 C  py                47      1.036720  4 H  s          
    20     -1.004222  2 C  s                 29     -0.900340  2 C  py         
   117     -0.786164  8 H  s                 92      0.649387  6 Cl pz         
    36     -0.603466  3 O  s                114     -0.556074  7 Cl pz         
 
 Vector   63  Occ=0.000000D+00  E= 2.636401D-01
              MO Center=  2.7D-03, -3.7D-01, -5.4D-01, r^2= 8.3D+00
   Bfn.  Coefficient  Atom+Function         Bfn.  Coefficient  Atom+Function  
  ----- ------------  ---------------      ----- ------------  ---------------
    28      1.459955  2 C  px                43     -1.375480  3 O  px         
    69     -0.704677  5 Cl py                13     -0.628789  1 C  px         
   112     -0.606830  7 Cl px               113      0.586518  7 Cl py         
    68     -0.501803  5 Cl px                70     -0.495301  5 Cl pz         
    40      0.469188  3 O  px               114      0.450094  7 Cl pz         
 
 Vector   64  Occ=0.000000D+00  E= 3.059906D-01
              MO Center=  1.7D-01, -2.2D+00, -2.6D-01, r^2= 5.3D+00
   Bfn.  Coefficient  Atom+Function         Bfn.  Coefficient  Atom+Function  
  ----- ------------  ---------------      ----- ------------  ---------------
    44      1.961272  3 O  py               117      1.674528  8 H  s          
    21     -1.348966  2 C  s                 30     -1.196110  2 C  pz         
    91      0.983900  6 Cl py                 5      0.973889  1 C  s          
    15     -0.934603  1 C  pz               116     -0.744477  8 H  s          
    45      0.728376  3 O  pz                48     -0.535670  4 H  s          
 
 Vector   65  Occ=0.000000D+00  E= 3.760388D-01
              MO Center=  8.2D-02, -9.4D-01, -4.4D-01, r^2= 6.0D+00
   Bfn.  Coefficient  Atom+Function         Bfn.  Coefficient  Atom+Function  
  ----- ------------  ---------------      ----- ------------  ---------------
    21     -6.310149  2 C  s                  6      5.949311  1 C  s          
     5     -2.472874  1 C  s                 15     -2.201208  1 C  pz         
    45     -1.746601  3 O  pz                44      1.569873  3 O  py         
   117      1.533698  8 H  s                 14     -1.327878  1 C  py         
    30     -1.203538  2 C  pz                91      0.893109  6 Cl py         
 
 Vector   66  Occ=0.000000D+00  E= 4.696904D-01
              MO Center=  1.1D-01, -1.1D+00, -8.8D-01, r^2= 5.9D+00
   Bfn.  Coefficient  Atom+Function         Bfn.  Coefficient  Atom+Function  
  ----- ------------  ---------------      ----- ------------  ---------------
     6      9.395511  1 C  s                 30     -5.280182  2 C  pz         
    21     -3.315561  2 C  s                 45      3.082197  3 O  pz         
     5     -2.700639  1 C  s                 48     -2.699057  4 H  s          
    29     -1.963837  2 C  py                14     -1.662037  1 C  py         
   116     -1.113008  8 H  s                 15     -1.088151  1 C  pz         
 
 Vector   67  Occ=0.000000D+00  E= 6.792664D-01
              MO Center=  2.4D-01, -2.6D-01, -4.8D-02, r^2= 5.3D+00
   Bfn.  Coefficient  Atom+Function         Bfn.  Coefficient  Atom+Function  
  ----- ------------  ---------------      ----- ------------  ---------------
    36      2.367666  3 O  s                 99     -2.254528  7 Cl s          
    77      2.071185  6 Cl s                 98      1.583566  7 Cl s          
    76     -1.520467  6 Cl s                 35     -1.394102  3 O  s          
    55     -1.300192  5 Cl s                 14      1.181147  1 C  py         
    54      0.883087  5 Cl s                 15     -0.738008  1 C  pz         
 
 Vector   68  Occ=0.000000D+00  E= 6.842682D-01
              MO Center= -2.7D-01,  6.4D-01, -3.0D-01, r^2= 4.5D+00
   Bfn.  Coefficient  Atom+Function         Bfn.  Coefficient  Atom+Function  
  ----- ------------  ---------------      ----- ------------  ---------------
    55      2.929319  5 Cl s                 99     -2.232198  7 Cl s          
    54     -2.120336  5 Cl s                 98      1.642533  7 Cl s          
    13      1.410474  1 C  px                10      0.729423  1 C  px         
    68      0.726992  5 Cl px               113      0.596033  7 Cl py         
    69     -0.553294  5 Cl py                53      0.484584  5 Cl s          
 
 Vector   69  Occ=0.000000D+00  E= 7.546496D-01
              MO Center= -1.1D-02, -1.3D-01,  6.9D-01, r^2= 4.8D+00
   Bfn.  Coefficient  Atom+Function         Bfn.  Coefficient  Atom+Function  
  ----- ------------  ---------------      ----- ------------  ---------------
     6      4.454418  1 C  s                 77     -3.650182  6 Cl s          
    76      2.249377  6 Cl s                 99     -1.780083  7 Cl s          
    55     -1.767655  5 Cl s                  5     -1.471116  1 C  s          
    29      1.101984  2 C  py                36      1.080505  3 O  s          
    98      1.073319  7 Cl s                 54      1.065895  5 Cl s          
 
 Vector   70  Occ=0.000000D+00  E= 8.472368D-01
              MO Center=  1.1D-01, -1.2D+00, -5.8D-01, r^2= 5.0D+00
   Bfn.  Coefficient  Atom+Function         Bfn.  Coefficient  Atom+Function  
  ----- ------------  ---------------      ----- ------------  ---------------
    36      5.383354  3 O  s                 21     -3.141476  2 C  s          
    35     -2.560745  3 O  s                 30     -2.536998  2 C  pz         
    99      1.715400  7 Cl s                 55      1.676182  5 Cl s          
    14     -1.565910  1 C  py                44      1.411803  3 O  py         
    48     -1.313708  4 H  s                 29      1.120116  2 C  py         
 
 Vector   71  Occ=0.000000D+00  E= 1.036121D+00
              MO Center=  5.0D-02, -5.3D-01, -6.7D-01, r^2= 2.8D+00
   Bfn.  Coefficient  Atom+Function         Bfn.  Coefficient  Atom+Function  
  ----- ------------  ---------------      ----- ------------  ---------------
    26      2.342159  2 C  py                 6     -1.739108  1 C  s          
    11      1.522031  1 C  py                14     -1.169605  1 C  py         
    99      1.033767  7 Cl s                 55      1.012557  5 Cl s          
    23     -0.924455  2 C  py                12      0.834461  1 C  pz         
     8     -0.745164  1 C  py                29     -0.713505  2 C  py         
 
 Vector   72  Occ=0.000000D+00  E= 1.045458D+00
              MO Center=  8.7D-02, -7.6D-01, -9.5D-01, r^2= 2.0D+00
   Bfn.  Coefficient  Atom+Function         Bfn.  Coefficient  Atom+Function  
  ----- ------------  ---------------      ----- ------------  ---------------
    25      1.619815  2 C  px                22     -1.160003  2 C  px         
    28     -0.791780  2 C  px                13     -0.784043  1 C  px         
    55     -0.622388  5 Cl s                 10      0.573519  1 C  px         
    99      0.540596  7 Cl s                  7     -0.476154  1 C  px         
    54      0.337960  5 Cl s                 98     -0.297040  7 Cl s          
 
 Vector   73  Occ=0.000000D+00  E= 1.112003D+00
              MO Center=  2.2D-02, -2.6D-01, -1.7D-01, r^2= 2.9D+00
   Bfn.  Coefficient  Atom+Function         Bfn.  Coefficient  Atom+Function  
  ----- ------------  ---------------      ----- ------------  ---------------
    77      1.888084  6 Cl s                 12      1.848159  1 C  pz         
    15     -1.832833  1 C  pz                27      1.767087  2 C  pz         
     6     -1.553024  1 C  s                 76     -1.099954  6 Cl s          
     9     -0.965945  1 C  pz                48     -0.846276  4 H  s          
    36     -0.789260  3 O  s                 24     -0.702719  2 C  pz         
 
 Vector   74  Occ=0.000000D+00  E= 1.181353D+00
              MO Center=  5.4D-03, -2.3D-02, -2.0D-01, r^2= 2.7D+00
   Bfn.  Coefficient  Atom+Function         Bfn.  Coefficient  Atom+Function  
  ----- ------------  ---------------      ----- ------------  ---------------
    13      2.108221  1 C  px                10     -1.907461  1 C  px         
     7      1.145031  1 C  px                99     -1.090107  7 Cl s          
    55      1.076955  5 Cl s                 28     -0.946414  2 C  px         
    25      0.894505  2 C  px                98      0.774048  7 Cl s          
    54     -0.764872  5 Cl s                 22     -0.477370  2 C  px         
 
 Vector   75  Occ=0.000000D+00  E= 1.250949D+00
              MO Center=  2.6D-02, -1.7D-01, -5.2D-01, r^2= 2.8D+00
   Bfn.  Coefficient  Atom+Function         Bfn.  Coefficient  Atom+Function  
  ----- ------------  ---------------      ----- ------------  ---------------
    26      1.849207  2 C  py                14      1.625747  1 C  py         
    11     -1.609168  1 C  py                29     -1.202453  2 C  py         
     8      0.994757  1 C  py                20     -0.872928  2 C  s          
    23     -0.787250  2 C  py                 6      0.597335  1 C  s          
     5     -0.512628  1 C  s                 55     -0.478011  5 Cl s          
 
 Vector   76  Occ=0.000000D+00  E= 1.294549D+00
              MO Center=  6.1D-02, -6.0D-01, -6.4D-01, r^2= 2.6D+00
   Bfn.  Coefficient  Atom+Function         Bfn.  Coefficient  Atom+Function  
  ----- ------------  ---------------      ----- ------------  ---------------
    27      2.313712  2 C  pz                30     -1.671925  2 C  pz         
    48     -1.561685  4 H  s                 21      1.373883  2 C  s          
    15      1.254434  1 C  pz                24     -1.075301  2 C  pz         
    47      1.049059  4 H  s                 12     -1.040465  1 C  pz         
     9      0.742349  1 C  pz                11      0.624787  1 C  py         
 
 Vector   77  Occ=0.000000D+00  E= 1.758762D+00
              MO Center=  1.7D-01, -2.4D+00,  6.9D-02, r^2= 1.5D+00
   Bfn.  Coefficient  Atom+Function         Bfn.  Coefficient  Atom+Function  
  ----- ------------  ---------------      ----- ------------  ---------------
   116      2.234379  8 H  s                115     -1.245897  8 H  s          
   117     -1.135064  8 H  s                 42     -0.854016  3 O  pz         
    30      0.635155  2 C  pz                39      0.586823  3 O  pz         
     6     -0.436086  1 C  s                 36     -0.435411  3 O  s          
    48      0.385522  4 H  s                 29     -0.350462  2 C  py         
 
 Vector   78  Occ=0.000000D+00  E= 1.902097D+00
              MO Center=  1.0D-01, -7.3D-01, -1.6D+00, r^2= 2.1D+00
   Bfn.  Coefficient  Atom+Function         Bfn.  Coefficient  Atom+Function  
  ----- ------------  ---------------      ----- ------------  ---------------
    20      3.555947  2 C  s                 19     -2.589915  2 C  s          
    21     -2.309478  2 C  s                 47     -1.858714  4 H  s          
    46      1.074260  4 H  s                  6      0.981283  1 C  s          
    48      0.859796  4 H  s                  5     -0.747175  1 C  s          
    30     -0.595533  2 C  pz                18      0.500260  2 C  s          
 
 Vector   79  Occ=0.000000D+00  E= 1.994402D+00
              MO Center= -3.3D-02,  6.9D-01,  8.8D-02, r^2= 4.4D+00
   Bfn.  Coefficient  Atom+Function         Bfn.  Coefficient  Atom+Function  
  ----- ------------  ---------------      ----- ------------  ---------------
    65     -1.227342  5 Cl px               109     -1.215914  7 Cl px         
    62      1.172270  5 Cl px               106      1.161038  7 Cl px         
    87     -0.937352  6 Cl px                84      0.888057  6 Cl px         
    68      0.557338  5 Cl px               112      0.550704  7 Cl px         
    90      0.449574  6 Cl px               110     -0.307587  7 Cl py         
 
 Vector   80  Occ=0.000000D+00  E= 2.000387D+00
              MO Center= -5.2D-02,  3.1D-01,  4.5D-01, r^2= 4.5D+00
   Bfn.  Coefficient  Atom+Function         Bfn.  Coefficient  Atom+Function  
  ----- ------------  ---------------      ----- ------------  ---------------
    89     -1.109036  6 Cl pz                86      1.048305  6 Cl pz         
   110      0.753522  7 Cl py                66      0.745079  5 Cl py         
    67     -0.742027  5 Cl pz               111     -0.732113  7 Cl pz         
   107     -0.719445  7 Cl py                63     -0.711035  5 Cl py         
    64      0.701239  5 Cl pz               108      0.691253  7 Cl pz         
 
 Vector   81  Occ=0.000000D+00  E= 2.036919D+00
              MO Center= -4.7D-02,  5.1D-01,  3.0D-01, r^2= 4.4D+00
   Bfn.  Coefficient  Atom+Function         Bfn.  Coefficient  Atom+Function  
  ----- ------------  ---------------      ----- ------------  ---------------
    87     -1.190808  6 Cl px                84      1.100955  6 Cl px         
   111      0.833323  7 Cl pz                67     -0.794520  5 Cl pz         
   108     -0.772293  7 Cl pz                64      0.736526  5 Cl pz         
    66      0.681519  5 Cl py               109      0.640294  7 Cl px         
    63     -0.630552  5 Cl py                65      0.602828  5 Cl px         
 
 Vector   82  Occ=0.000000D+00  E= 2.053198D+00
              MO Center=  2.6D-02,  9.9D-01, -2.6D-01, r^2= 3.9D+00
   Bfn.  Coefficient  Atom+Function         Bfn.  Coefficient  Atom+Function  
  ----- ------------  ---------------      ----- ------------  ---------------
   111      1.170122  7 Cl pz                67     -1.122606  5 Cl pz         
   108     -1.080940  7 Cl pz                64      1.037059  5 Cl pz         
   110      0.849120  7 Cl py                66     -0.818416  5 Cl py         
   107     -0.783046  7 Cl py                63      0.752889  5 Cl py         
   114     -0.525789  7 Cl pz                70      0.500641  5 Cl pz         
 
 Vector   83  Occ=0.000000D+00  E= 2.055039D+00
              MO Center= -1.3D-01,  7.0D-01, -3.8D-01, r^2= 3.3D+00
   Bfn.  Coefficient  Atom+Function         Bfn.  Coefficient  Atom+Function  
  ----- ------------  ---------------      ----- ------------  ---------------
     6      3.593925  1 C  s                  5     -2.831138  1 C  s          
    21     -1.954393  2 C  s                  4      1.919101  1 C  s          
    20      1.044244  2 C  s                 66      0.900085  5 Cl py         
    67      0.870850  5 Cl pz                63     -0.842220  5 Cl py         
   110      0.840919  7 Cl py                64     -0.800369  5 Cl pz         
 
 Vector   84  Occ=0.000000D+00  E= 2.062782D+00
              MO Center= -2.6D-03, -2.8D-01,  8.4D-01, r^2= 3.8D+00
   Bfn.  Coefficient  Atom+Function         Bfn.  Coefficient  Atom+Function  
  ----- ------------  ---------------      ----- ------------  ---------------
    88      1.523553  6 Cl py                85     -1.385549  6 Cl py         
     6      1.322089  1 C  s                  5     -1.090083  1 C  s          
     4      0.767057  1 C  s                 89      0.767474  6 Cl pz         
    91     -0.757764  6 Cl py                20      0.729022  2 C  s          
    86     -0.715331  6 Cl pz                21     -0.681513  2 C  s          
 
 Vector   85  Occ=0.000000D+00  E= 2.091733D+00
              MO Center= -2.7D-02, -1.4D-01, -4.6D-01, r^2= 3.3D+00
   Bfn.  Coefficient  Atom+Function         Bfn.  Coefficient  Atom+Function  
  ----- ------------  ---------------      ----- ------------  ---------------
     6     -4.262094  1 C  s                  5      4.058586  1 C  s          
     4     -2.925549  1 C  s                 20      1.760031  2 C  s          
    19     -1.580775  2 C  s                 30      1.399114  2 C  pz         
    48      0.940766  4 H  s                 14      0.837463  1 C  py         
    77      0.746173  6 Cl s                 55      0.675276  5 Cl s          
 
 Vector   86  Occ=0.000000D+00  E= 2.094820D+00
              MO Center=  3.1D-02,  1.9D-01,  2.9D-01, r^2= 5.0D+00
   Bfn.  Coefficient  Atom+Function         Bfn.  Coefficient  Atom+Function  
  ----- ------------  ---------------      ----- ------------  ---------------
    87     -1.246899  6 Cl px                84      1.152472  6 Cl px         
   110      1.064684  7 Cl py                66     -0.981612  5 Cl py         
   107     -0.952945  7 Cl py                63      0.881990  5 Cl py         
    40     -0.521654  3 O  px                90      0.500921  6 Cl px         
   113     -0.499227  7 Cl py                69      0.419777  5 Cl py         
 
 Vector   87  Occ=0.000000D+00  E= 2.124956D+00
              MO Center= -4.0D-02,  3.6D-01,  3.4D-01, r^2= 4.7D+00
   Bfn.  Coefficient  Atom+Function         Bfn.  Coefficient  Atom+Function  
  ----- ------------  ---------------      ----- ------------  ---------------
     6     -1.363622  1 C  s                 89      1.265352  6 Cl pz         
     5      1.243278  1 C  s                 86     -1.088335  6 Cl pz         
   109     -1.030946  7 Cl px                65      0.994524  5 Cl px         
   106      0.917059  7 Cl px                62     -0.881381  5 Cl px         
     4     -0.849572  1 C  s                 20     -0.797734  2 C  s          
 
 Vector   88  Occ=0.000000D+00  E= 2.175491D+00
              MO Center= -1.0D-02,  2.1D-03,  2.3D-01, r^2= 4.3D+00
   Bfn.  Coefficient  Atom+Function         Bfn.  Coefficient  Atom+Function  
  ----- ------------  ---------------      ----- ------------  ---------------
     6      3.416025  1 C  s                 21     -3.271447  2 C  s          
     5     -2.259515  1 C  s                 20      1.855419  2 C  s          
     4      1.409720  1 C  s                 88     -1.282188  6 Cl py         
    19     -1.238851  2 C  s                 85      1.107084  6 Cl py         
    15     -1.025717  1 C  pz                67     -0.887781  5 Cl pz         
 
 Vector   89  Occ=0.000000D+00  E= 2.214249D+00
              MO Center=  1.6D-01, -1.9D+00, -7.5D-01, r^2= 2.3D+00
   Bfn.  Coefficient  Atom+Function         Bfn.  Coefficient  Atom+Function  
  ----- ------------  ---------------      ----- ------------  ---------------
    40      1.676715  3 O  px                37     -1.131971  3 O  px         
    43     -1.038190  3 O  px                28      0.635602  2 C  px         
    87     -0.471504  6 Cl px                84      0.408705  6 Cl px         
    25     -0.341715  2 C  px               110      0.322508  7 Cl py         
    10      0.294387  1 C  px                66     -0.294221  5 Cl py         
 
 Vector   90  Occ=0.000000D+00  E= 2.294068D+00
              MO Center=  1.8D-02, -6.5D-03, -5.6D-01, r^2= 4.5D+00
   Bfn.  Coefficient  Atom+Function         Bfn.  Coefficient  Atom+Function  
  ----- ------------  ---------------      ----- ------------  ---------------
    20      3.012413  2 C  s                 19     -2.190044  2 C  s          
    21     -1.974000  2 C  s                 30      1.129870  2 C  pz         
    65      1.034961  5 Cl px                47      1.005689  4 H  s          
   109     -0.964641  7 Cl px                89     -0.955601  6 Cl pz         
     6     -0.904317  1 C  s                 62     -0.837732  5 Cl px         
 
 Vector   91  Occ=0.000000D+00  E= 2.367321D+00
              MO Center=  1.7D-01, -2.0D+00, -8.3D-01, r^2= 1.9D+00
   Bfn.  Coefficient  Atom+Function         Bfn.  Coefficient  Atom+Function  
  ----- ------------  ---------------      ----- ------------  ---------------
     6      2.157795  1 C  s                  5     -1.788942  1 C  s          
    41     -1.739169  3 O  py                21     -1.433985  2 C  s          
     4      1.185872  1 C  s                 30     -1.121288  2 C  pz         
    44      1.124951  3 O  py                38      1.092705  3 O  py         
    48     -0.718001  4 H  s                 15     -0.628260  1 C  pz         
 
 Vector   92  Occ=0.000000D+00  E= 2.645398D+00
              MO Center=  1.8D-01, -2.1D+00, -7.9D-01, r^2= 1.5D+00
   Bfn.  Coefficient  Atom+Function         Bfn.  Coefficient  Atom+Function  
  ----- ------------  ---------------      ----- ------------  ---------------
     6      1.990729  1 C  s                 45      1.836190  3 O  pz         
    42     -1.689688  3 O  pz                30     -1.669679  2 C  pz         
     5     -1.357666  1 C  s                116     -1.215201  8 H  s          
    39      0.991782  3 O  pz               115      0.913602  8 H  s          
    48     -0.866732  4 H  s                  4      0.837440  1 C  s          
 
 Vector   93  Occ=0.000000D+00  E= 4.261618D+00
              MO Center=  1.8D-01, -2.1D+00, -8.7D-01, r^2= 8.6D-01
   Bfn.  Coefficient  Atom+Function         Bfn.  Coefficient  Atom+Function  
  ----- ------------  ---------------      ----- ------------  ---------------
    35      4.902987  3 O  s                 34     -3.860733  3 O  s          
    36     -3.674127  3 O  s                 21      1.469699  2 C  s          
    30      1.085125  2 C  pz                33      0.812655  3 O  s          
     6     -0.763997  1 C  s                 29     -0.756003  2 C  py         
    44     -0.640738  3 O  py               116      0.587344  8 H  s          
 
 Vector   94  Occ=0.000000D+00  E= 8.728781D+00
              MO Center= -3.3D-02,  5.9D-01,  2.0D-01, r^2= 3.4D+00
   Bfn.  Coefficient  Atom+Function         Bfn.  Coefficient  Atom+Function  
  ----- ------------  ---------------      ----- ------------  ---------------
    97      1.937198  7 Cl s                 53      1.910676  5 Cl s          
    75      1.700409  6 Cl s                 96     -1.616451  7 Cl s          
    52     -1.594332  5 Cl s                 74     -1.418525  6 Cl s          
    98     -1.260923  7 Cl s                 54     -1.243880  5 Cl s          
    76     -1.111690  6 Cl s                  6     -1.041833  1 C  s          
 
 Vector   95  Occ=0.000000D+00  E= 8.790966D+00
              MO Center= -6.1D-02,  1.0D+00, -3.5D-01, r^2= 2.7D+00
   Bfn.  Coefficient  Atom+Function         Bfn.  Coefficient  Atom+Function  
  ----- ------------  ---------------      ----- ------------  ---------------
    53      2.294383  5 Cl s                 97     -2.297796  7 Cl s          
    52     -1.907126  5 Cl s                 96      1.909964  7 Cl s          
    54     -1.491226  5 Cl s                 98      1.493031  7 Cl s          
    55      1.121029  5 Cl s                 99     -1.120163  7 Cl s          
    13      0.767586  1 C  px                51      0.324996  5 Cl s          
 
 Vector   96  Occ=0.000000D+00  E= 8.839720D+00
              MO Center= -4.0D-02, -1.5D-01,  1.1D+00, r^2= 2.5D+00
   Bfn.  Coefficient  Atom+Function         Bfn.  Coefficient  Atom+Function  
  ----- ------------  ---------------      ----- ------------  ---------------
    75      2.769888  6 Cl s                 74     -2.292683  6 Cl s          
    76     -1.851130  6 Cl s                 77      1.502030  6 Cl s          
    53     -1.250356  5 Cl s                 97     -1.201150  7 Cl s          
    52      1.035242  5 Cl s                 96      0.994502  7 Cl s          
    54      0.830823  5 Cl s                 98      0.797947  7 Cl s          
 
 Vector   97  Occ=0.000000D+00  E= 1.119741D+01
              MO Center=  9.0D-02, -8.4D-01, -1.0D+00, r^2= 5.4D-01
   Bfn.  Coefficient  Atom+Function         Bfn.  Coefficient  Atom+Function  
  ----- ------------  ---------------      ----- ------------  ---------------
    19     -3.141976  2 C  s                 18      3.123160  2 C  s          
    20      2.585014  2 C  s                 17     -1.641803  2 C  s          
    21     -1.007867  2 C  s                  4     -0.942595  1 C  s          
     3      0.931280  1 C  s                  6     -0.838465  1 C  s          
     5      0.824995  1 C  s                 48      0.615573  4 H  s          
 
 Vector   98  Occ=0.000000D+00  E= 1.132843D+01
              MO Center= -7.4D-04,  2.7D-02, -1.1D-01, r^2= 5.6D-01
   Bfn.  Coefficient  Atom+Function         Bfn.  Coefficient  Atom+Function  
  ----- ------------  ---------------      ----- ------------  ---------------
     4     -3.312096  1 C  s                  3      3.145781  1 C  s          
     5      3.098676  1 C  s                  6     -2.964540  1 C  s          
     2     -1.639997  1 C  s                 21      1.512832  2 C  s          
    20     -1.030658  2 C  s                 19      1.003137  2 C  s          
    18     -0.932223  2 C  s                 30      0.723081  2 C  pz         
 
 Vector   99  Occ=0.000000D+00  E= 2.154279D+01
              MO Center=  1.9D-01, -2.2D+00, -8.8D-01, r^2= 2.0D-01
   Bfn.  Coefficient  Atom+Function         Bfn.  Coefficient  Atom+Function  
  ----- ------------  ---------------      ----- ------------  ---------------
    33      3.316211  3 O  s                 34     -3.194129  3 O  s          
    35      2.523405  3 O  s                 32     -1.740740  3 O  s          
    36     -1.534182  3 O  s                 21      0.588206  2 C  s          
    30      0.437584  2 C  pz                29     -0.323324  2 C  py         
     6     -0.307397  1 C  s                 44     -0.267438  3 O  py         
 
 Vector  100  Occ=0.000000D+00  E= 4.049574D+01
              MO Center= -3.4D-02,  5.2D-01,  2.9D-01, r^2= 3.2D+00
   Bfn.  Coefficient  Atom+Function         Bfn.  Coefficient  Atom+Function  
  ----- ------------  ---------------      ----- ------------  ---------------
    56      1.536810  5 Cl px               100      1.530452  7 Cl px         
    78      1.501246  6 Cl px                59     -1.373161  5 Cl px         
   103     -1.367489  7 Cl px                81     -1.341673  6 Cl px         
    62     -0.462459  5 Cl px               106     -0.460529  7 Cl px         
    84     -0.450767  6 Cl px               101      0.276703  7 Cl py         
 
 Vector  101  Occ=0.000000D+00  E= 4.049783D+01
              MO Center= -3.4D-02,  4.7D-01,  3.5D-01, r^2= 3.2D+00
   Bfn.  Coefficient  Atom+Function         Bfn.  Coefficient  Atom+Function  
  ----- ------------  ---------------      ----- ------------  ---------------
    80      1.347991  6 Cl pz                83     -1.204175  6 Cl pz         
   102      1.085009  7 Cl pz                58      1.070736  5 Cl pz         
   101     -1.063083  7 Cl py                57     -1.047211  5 Cl py         
   105     -0.969649  7 Cl pz                61     -0.956883  5 Cl pz         
   104      0.949912  7 Cl py                60      0.935752  5 Cl py         
 
 Vector  102  Occ=0.000000D+00  E= 4.050833D+01
              MO Center= -5.0D-02,  4.9D-01,  3.2D-01, r^2= 3.2D+00
   Bfn.  Coefficient  Atom+Function         Bfn.  Coefficient  Atom+Function  
  ----- ------------  ---------------      ----- ------------  ---------------
    78      1.544248  6 Cl px                81     -1.379585  6 Cl px         
   102     -0.962219  7 Cl pz                57     -0.919752  5 Cl py         
    58      0.921129  5 Cl pz               100     -0.871225  7 Cl px         
   105      0.859678  7 Cl pz                60      0.821735  5 Cl py         
    61     -0.822973  5 Cl pz                56     -0.802845  5 Cl px         
 
 Vector  103  Occ=0.000000D+00  E= 4.051024D+01
              MO Center=  5.5D-02,  1.0D+00, -2.9D-01, r^2= 2.6D+00
   Bfn.  Coefficient  Atom+Function         Bfn.  Coefficient  Atom+Function  
  ----- ------------  ---------------      ----- ------------  ---------------
   102     -1.586225  7 Cl pz                58      1.512713  5 Cl pz         
   105      1.416993  7 Cl pz                61     -1.351330  5 Cl pz         
   101     -0.973925  7 Cl py                57      0.899287  5 Cl py         
   104      0.870013  7 Cl py                60     -0.803345  5 Cl py         
    78     -0.484758  6 Cl px               108      0.479734  7 Cl pz         
 
 Vector  104  Occ=0.000000D+00  E= 4.051202D+01
              MO Center= -1.6D-01,  7.9D-01, -4.5D-02, r^2= 3.0D+00
   Bfn.  Coefficient  Atom+Function         Bfn.  Coefficient  Atom+Function  
  ----- ------------  ---------------      ----- ------------  ---------------
    57      1.352641  5 Cl py                60     -1.208262  5 Cl py         
   101      1.206391  7 Cl py                58      1.072744  5 Cl pz         
   104     -1.077611  7 Cl py                79     -1.031390  6 Cl py         
    61     -0.958257  5 Cl pz                82      0.921220  6 Cl py         
   102      0.897445  7 Cl pz               105     -0.801663  7 Cl pz         
 
 Vector  105  Occ=0.000000D+00  E= 4.051985D+01
              MO Center= -2.9D-02, -3.9D-01,  1.4D+00, r^2= 1.3D+00
   Bfn.  Coefficient  Atom+Function         Bfn.  Coefficient  Atom+Function  
  ----- ------------  ---------------      ----- ------------  ---------------
    79      2.025401  6 Cl py                82     -1.808747  6 Cl py         
    80      1.387170  6 Cl pz                83     -1.238602  6 Cl pz         
    85     -0.615674  6 Cl py                57      0.582229  5 Cl py         
    60     -0.519958  5 Cl py               101      0.499560  7 Cl py         
   104     -0.446133  7 Cl py                58      0.430610  5 Cl pz         
 
 Vector  106  Occ=0.000000D+00  E= 4.052370D+01
              MO Center= -4.8D-02,  5.5D-01,  2.5D-01, r^2= 3.2D+00
   Bfn.  Coefficient  Atom+Function         Bfn.  Coefficient  Atom+Function  
  ----- ------------  ---------------      ----- ------------  ---------------
    78      1.465938  6 Cl px               101     -1.409961  7 Cl py         
    57      1.329085  5 Cl py                81     -1.308979  6 Cl px         
   104      1.258707  7 Cl py                60     -1.186560  5 Cl py         
    56     -0.659492  5 Cl px                59      0.588413  5 Cl px         
   100     -0.509354  7 Cl px                58     -0.505756  5 Cl pz         
 
 Vector  107  Occ=0.000000D+00  E= 4.052942D+01
              MO Center= -6.1D-02,  6.0D-01,  1.9D-01, r^2= 3.2D+00
   Bfn.  Coefficient  Atom+Function         Bfn.  Coefficient  Atom+Function  
  ----- ------------  ---------------      ----- ------------  ---------------
    56      1.266034  5 Cl px                80      1.242442  6 Cl pz         
   100     -1.201526  7 Cl px                59     -1.130039  5 Cl px         
    83     -1.108634  6 Cl pz               103      1.072470  7 Cl px         
   102     -1.041571  7 Cl pz                58     -0.980663  5 Cl pz         
   105      0.929983  7 Cl pz                61      0.875626  5 Cl pz         
 
 Vector  108  Occ=0.000000D+00  E= 4.056250D+01
              MO Center= -4.7D-02,  4.6D-01,  3.5D-01, r^2= 3.2D+00
   Bfn.  Coefficient  Atom+Function         Bfn.  Coefficient  Atom+Function  
  ----- ------------  ---------------      ----- ------------  ---------------
    56      1.311381  5 Cl px                80     -1.313409  6 Cl pz         
   100     -1.240492  7 Cl px                59     -1.169096  5 Cl px         
    83      1.170781  6 Cl pz               103      1.105907  7 Cl px         
    79      0.889101  6 Cl py                82     -0.792689  6 Cl py         
   101     -0.762655  7 Cl py               104      0.679829  7 Cl py         
 
 Vector  109  Occ=0.000000D+00  E= 6.211848D+01
              MO Center=  7.8D-02, -7.3D-01, -8.9D-01, r^2= 4.2D-01
   Bfn.  Coefficient  Atom+Function         Bfn.  Coefficient  Atom+Function  
  ----- ------------  ---------------      ----- ------------  ---------------
    17      2.643623  2 C  s                 18     -2.004195  2 C  s          
    16     -1.566322  2 C  s                 19      1.301421  2 C  s          
     2      1.287124  1 C  s                 20     -0.995857  2 C  s          
     3     -0.980254  1 C  s                  1     -0.761720  1 C  s          
     4      0.645409  1 C  s                  5     -0.537862  1 C  s          
 
 Vector  110  Occ=0.000000D+00  E= 6.224213D+01
              MO Center=  1.1D-02, -8.9D-02, -2.3D-01, r^2= 4.2D-01
   Bfn.  Coefficient  Atom+Function         Bfn.  Coefficient  Atom+Function  
  ----- ------------  ---------------      ----- ------------  ---------------
     2      2.655733  1 C  s                  3     -2.030341  1 C  s          
     1     -1.567674  1 C  s                  4      1.384269  1 C  s          
    17     -1.289590  2 C  s                  5     -1.222032  1 C  s          
     6      1.147276  1 C  s                 18      0.982221  2 C  s          
    16      0.762052  2 C  s                 21     -0.714385  2 C  s          
 
 Vector  111  Occ=0.000000D+00  E= 1.174784D+02
              MO Center=  1.9D-01, -2.2D+00, -8.8D-01, r^2= 4.5D-02
   Bfn.  Coefficient  Atom+Function         Bfn.  Coefficient  Atom+Function  
  ----- ------------  ---------------      ----- ------------  ---------------
    32      2.967500  3 O  s                 33     -2.268889  3 O  s          
    31     -1.755806  3 O  s                 34      1.423218  3 O  s          
    35     -1.060751  3 O  s                 36      0.646411  3 O  s          
    21     -0.252287  2 C  s                 30     -0.184838  2 C  pz         
    29      0.137456  2 C  py                 6      0.130757  1 C  s          
 
 Vector  112  Occ=0.000000D+00  E= 1.227881D+02
              MO Center= -1.7D-02,  6.5D-01,  1.4D-01, r^2= 3.1D+00
   Bfn.  Coefficient  Atom+Function         Bfn.  Coefficient  Atom+Function  
  ----- ------------  ---------------      ----- ------------  ---------------
    95      1.409163  7 Cl s                 51      1.368753  5 Cl s          
    73      1.124955  6 Cl s                 96     -1.069298  7 Cl s          
    52     -1.038628  5 Cl s                 94     -1.001310  7 Cl s          
    50     -0.972597  5 Cl s                 74     -0.853711  6 Cl s          
    72     -0.799353  6 Cl s                 97      0.720960  7 Cl s          
 
 Vector  113  Occ=0.000000D+00  E= 1.228139D+02
              MO Center= -8.1D-02,  1.1D+00, -3.6D-01, r^2= 2.4D+00
   Bfn.  Coefficient  Atom+Function         Bfn.  Coefficient  Atom+Function  
  ----- ------------  ---------------      ----- ------------  ---------------
    51      1.609564  5 Cl s                 95     -1.592220  7 Cl s          
    52     -1.222710  5 Cl s                 96      1.209542  7 Cl s          
    50     -1.143535  5 Cl s                 94      1.131211  7 Cl s          
    53      0.825905  5 Cl s                 97     -0.817011  7 Cl s          
    54     -0.378248  5 Cl s                 98      0.373993  7 Cl s          
 
 Vector  114  Occ=0.000000D+00  E= 1.228566D+02
              MO Center= -3.9D-02, -2.1D-01,  1.2D+00, r^2= 1.9D+00
   Bfn.  Coefficient  Atom+Function         Bfn.  Coefficient  Atom+Function  
  ----- ------------  ---------------      ----- ------------  ---------------
    73      1.965303  6 Cl s                 74     -1.496093  6 Cl s          
    72     -1.395898  6 Cl s                 75      1.015051  6 Cl s          
    51     -0.813875  5 Cl s                 95     -0.778189  7 Cl s          
    52      0.619504  5 Cl s                 96      0.592346  7 Cl s          
    50      0.578078  5 Cl s                 94      0.552731  7 Cl s          
 
 Vector  115  Occ=0.000000D+00  E= 8.993364D+02
              MO Center= -1.8D-02,  6.6D-01,  1.3D-01, r^2= 3.1D+00
   Bfn.  Coefficient  Atom+Function         Bfn.  Coefficient  Atom+Function  
  ----- ------------  ---------------      ----- ------------  ---------------
    94      1.460456  7 Cl s                 50      1.420101  5 Cl s          
    72      1.156528  6 Cl s                 93     -1.086228  7 Cl s          
    49     -1.056214  5 Cl s                 71     -0.860176  6 Cl s          
    95     -0.820859  7 Cl s                 51     -0.798176  5 Cl s          
    73     -0.650040  6 Cl s                 96      0.436752  7 Cl s          
 
 Vector  116  Occ=0.000000D+00  E= 8.993663D+02
              MO Center= -7.9D-02,  1.1D+00, -3.6D-01, r^2= 2.4D+00
   Bfn.  Coefficient  Atom+Function         Bfn.  Coefficient  Atom+Function  
  ----- ------------  ---------------      ----- ------------  ---------------
    50      1.664365  5 Cl s                 94     -1.648188  7 Cl s          
    49     -1.237809  5 Cl s                 93      1.225778  7 Cl s          
    51     -0.935640  5 Cl s                 95      0.926547  7 Cl s          
    52      0.498387  5 Cl s                 96     -0.493546  7 Cl s          
    53     -0.322023  5 Cl s                 97      0.318895  7 Cl s          
 
 Vector  117  Occ=0.000000D+00  E= 8.994134D+02
              MO Center= -3.9D-02, -2.2D-01,  1.2D+00, r^2= 1.9D+00
   Bfn.  Coefficient  Atom+Function         Bfn.  Coefficient  Atom+Function  
  ----- ------------  ---------------      ----- ------------  ---------------
    72      2.037147  6 Cl s                 71     -1.514895  6 Cl s          
    73     -1.145556  6 Cl s                 50     -0.837319  5 Cl s          
    94     -0.799011  7 Cl s                 49      0.622662  5 Cl s          
    74      0.611441  6 Cl s                 93      0.594175  7 Cl s          
    51      0.470848  5 Cl s                 95      0.449307  7 Cl s          
 

 center of mass
 --------------
 x =  -0.00536838 y =   0.05858005 z =   0.03789319

 moments of inertia (a.u.)
 ------------------
        1161.484205644108           5.519515044945          -6.688241872100
           5.519515044945        1078.093620357394          68.328305467242
          -6.688241872100          68.328305467242        1263.747395456974
 
     Multipole analysis of the density
     ---------------------------------
 
     L   x y z        total         alpha         beta         nuclear
     -   - - -        -----         -----         ----         -------
     0   0 0 0      1.000000    -36.000000    -36.000000     73.000000
 
     1   1 0 0      0.122175      0.061087      0.061087     -0.000000
     1   0 1 0     -1.372032     -0.686016     -0.686016     -0.000000
     1   0 0 1     -0.788560     -0.394280     -0.394280      0.000000
 
     2   2 0 0    -36.229097   -161.629105   -161.629105    287.029113
     2   1 1 0     -0.351218      1.837505      1.837505     -4.026228
     2   1 0 1      0.022138     -1.316133     -1.316133      2.654403
     2   0 2 0    -31.066845   -187.547248   -187.547248    344.027650
     2   0 1 1     -1.095728     13.880296     13.880296    -28.856319
     2   0 0 2    -34.146415   -140.573570   -140.573570    247.000726
 

 Task  times  cpu:        3.2s     wall:        3.4s
 
 
                                NWChem Input Module
                                -------------------
 
 
 Summary of allocated global arrays
-----------------------------------
  No active global arrays



                         GA Statistics for process    0
                         ------------------------------

       create   destroy   get      put      acc     scatter   gather  read&inc
calls:  178      178     7228     1461     4077        0        0      482     
number of processes/call 2.36e+01 5.76e+01 1.74e+01 0.00e+00 0.00e+00
bytes total:             4.27e+07 5.64e+06 2.10e+07 0.00e+00 0.00e+00 3.86e+03
bytes remote:            3.44e+07 3.05e+06 1.78e+07 0.00e+00 0.00e+00 0.00e+00
Max memory consumed for GA by this process: 616888 bytes
 
 
 
                                     CITATION
                                     --------
                Please cite the following reference when publishing
                           results obtained with NWChem:
 
          E. Apr, E. J. Bylaska, W. A. de Jong, N. Govind, K. Kowalski,
       T. P. Straatsma, M. Valiev, H. J. J. van Dam, Y. Alexeev, J. Anchell,
       V. Anisimov, F. W. Aquino, R. Atta-Fynn, J. Autschbach, N. P. Bauman,
     J. C. Becca, D. E. Bernholdt, K. Bhaskaran-Nair, S. Bogatko, P. Borowski,
        J. Boschen, J. Brabec, A. Bruner, E. Caut, Y. Chen, G. N. Chuev,
      C. J. Cramer, J. Daily, M. J. O. Deegan, T. H. Dunning Jr., M. Dupuis,
   K. G. Dyall, G. I. Fann, S. A. Fischer, A. Fonari, H. Frchtl, L. Gagliardi,
      J. Garza, N. Gawande, S. Ghosh, K. Glaesemann, A. W. Gtz, J. Hammond,
       V. Helms, E. D. Hermes, K. Hirao, S. Hirata, M. Jacquelin, L. Jensen,
   B. G. Johnson, H. Jnsson, R. A. Kendall, M. Klemm, R. Kobayashi, V. Konkov,
      S. Krishnamoorthy, M. Krishnan, Z. Lin, R. D. Lins, R. J. Littlefield,
      A. J. Logsdail, K. Lopata, W. Ma, A. V. Marenich, J. Martin del Campo,
   D. Mejia-Rodriguez, J. E. Moore, J. M. Mullin, T. Nakajima, D. R. Nascimento,
    J. A. Nichols, P. J. Nichols, J. Nieplocha, A. Otero-de-la-Roza, B. Palmer,
    A. Panyala, T. Pirojsirikul, B. Peng, R. Peverati, J. Pittner, L. Pollack,
   R. M. Richard, P. Sadayappan, G. C. Schatz, W. A. Shelton, D. W. Silverstein,
   D. M. A. Smith, T. A. Soares, D. Song, M. Swart, H. L. Taylor, G. S. Thomas,
            V. Tipparaju, D. G. Truhlar, K. Tsemekhman, T. Van Voorhis,
     . Vzquez-Mayagoitia, P. Verma, O. Villa, A. Vishnu, K. D. Vogiatzis,
        D. Wang, J. H. Weare, M. J. Williamson, T. L. Windus, K. Woliski,
        A. T. Wong, Q. Wu, C. Yang, Q. Yu, M. Zacharias, Z. Zhang, Y. Zhao,
                                and R. J. Harrison
                        "NWChem: Past, present, and future
                         J. Chem. Phys. 152, 184102 (2020)
                               doi:10.1063/5.0004997
 
                                      AUTHORS
                                      -------
     E. Apra, E. J. Bylaska, N. Govind, K. Kowalski, M. Valiev, W. A. de Jong,
      T. P. Straatsma, H. J. J. van Dam, D. Wang, T. L. Windus, N. P. Bauman,
       A. Panyala, J. Hammond, J. Autschbach, K. Bhaskaran-Nair, J. Brabec,
    K. Lopata, S. A. Fischer, S. Krishnamoorthy, M. Jacquelin, W. Ma, M. Klemm,
       O. Villa, Y. Chen, V. Anisimov, F. Aquino, S. Hirata, M. T. Hackler,
           Eric Hermes, L. Jensen, J. E. Moore, J. C. Becca, V. Konjkov,
            D. Mejia-Rodriguez, T. Risthaus, M. Malagoli, A. Marenich,
   A. Otero-de-la-Roza, J. Mullin, P. Nichols, R. Peverati, J. Pittner, Y. Zhao,
        P.-D. Fan, A. Fonari, M. J. Williamson, R. J. Harrison, J. R. Rehr,
      M. Dupuis, D. Silverstein, D. M. A. Smith, J. Nieplocha, V. Tipparaju,
      M. Krishnan, B. E. Van Kuiken, A. Vazquez-Mayagoitia, M. Swart, Q. Wu,
   T. Van Voorhis, A. A. Auer, M. Nooijen, L. D. Crosby, E. Brown, G. Cisneros,
     G. I. Fann, H. Fruchtl, J. Garza, K. Hirao, R. A. Kendall, J. A. Nichols,
       K. Tsemekhman, K. Wolinski, J. Anchell, D. E. Bernholdt, P. Borowski,
       T. Clark, D. Clerc, H. Dachsel, M. J. O. Deegan, K. Dyall, D. Elwood,
      E. Glendening, M. Gutowski, A. C. Hess, J. Jaffe, B. G. Johnson, J. Ju,
        R. Kobayashi, R. Kutteh, Z. Lin, R. Littlefield, X. Long, B. Meng,
      T. Nakajima, S. Niu, L. Pollack, M. Rosing, K. Glaesemann, G. Sandrone,
      M. Stave, H. Taylor, G. Thomas, J. H. van Lenthe, A. T. Wong, Z. Zhang.

 Total times  cpu:        3.2s     wall:        3.4s
