 
             Northwest Computational Chemistry Package (NWChem) 7.0.0
             --------------------------------------------------------
 
 
                    Environmental Molecular Sciences Laboratory
                       Pacific Northwest National Laboratory
                                Richland, WA 99352
 
                              Copyright (c) 1994-2020
                       Pacific Northwest National Laboratory
                            Battelle Memorial Institute
 
             NWChem is an open-source computational chemistry package
                        distributed under the terms of the
                      Educational Community License (ECL) 2.0
             A copy of the license is included with this distribution
                              in the LICENSE.TXT file
 
                                  ACKNOWLEDGMENT
                                  --------------

            This software and its documentation were developed at the
            EMSL at Pacific Northwest National Laboratory, a multiprogram
            national laboratory, operated for the U.S. Department of Energy
            by Battelle under Contract Number DE-AC05-76RL01830. Support
            for this work was provided by the Department of Energy Office
            of Biological and Environmental Research, Office of Basic
            Energy Sciences, and the Office of Advanced Scientific Computing.


                                NWChem Input Module
                                -------------------
 
 
 Summary of "ao basis" -> "" (spherical)
 ------------------------------------------------------------------------------
       Tag                 Description            Shells   Functions and Types
 ---------------- ------------------------------  ------  ---------------------
 *                        ahlrichs_vtz                on all atoms 



 Scaling coordinates for geometry "geometry" by  1.889725989
 (inverse scale =  0.529177249)

 
 
                             Geometry "geometry" -> ""
                             -------------------------
 
 Output coordinates in angstroms (scale by  1.889725989 to convert to a.u.)
 
  No.       Tag          Charge          X              Y              Z
 ---- ---------------- ---------- -------------- -------------- --------------
    1 C                    6.0000     0.30984579    -0.30197740    -0.93097775
    2 C                    6.0000     1.51718689    -0.50702506    -0.38371489
    3 H                    1.0000     1.71874824    -0.31687404     0.67224682
    4 H                    1.0000     2.35558335    -0.87574971    -0.97691182
    5 C                    6.0000    -0.92326496     0.20281730    -0.22030980
    6 H                    1.0000     0.17174794    -0.51238308    -1.99879055
    7 C                    6.0000    -0.75339037     0.50377803     1.27301478
    8 H                    1.0000    -1.27942190     1.11078366    -0.74248944
    9 H                    1.0000    -1.73322720    -0.53795622    -0.35861911
   10 H                    1.0000     0.01155542     1.27697081     1.44023676
   11 H                    1.0000    -0.45028357    -0.39563704     1.82989373
   12 H                    1.0000    -1.69696641     0.86528851     1.70635961
 
      Atomic Mass 
      ----------- 
 
      C                 12.000000
      H                  1.007825
 

 Effective nuclear repulsion energy (a.u.)     118.0282529360

            Nuclear Dipole moment (a.u.) 
            ----------------------------
        X                 Y               Z
 ---------------- ---------------- ----------------
    -0.0000000000    -0.0000000000     0.0000000000
 
 
            XYZ format geometry
            -------------------
    12
 geometry
 C                     0.30984579    -0.30197740    -0.93097775
 C                     1.51718689    -0.50702506    -0.38371489
 H                     1.71874824    -0.31687404     0.67224682
 H                     2.35558335    -0.87574971    -0.97691182
 C                    -0.92326496     0.20281730    -0.22030980
 H                     0.17174794    -0.51238308    -1.99879055
 C                    -0.75339037     0.50377803     1.27301478
 H                    -1.27942190     1.11078366    -0.74248944
 H                    -1.73322720    -0.53795622    -0.35861911
 H                     0.01155542     1.27697081     1.44023676
 H                    -0.45028357    -0.39563704     1.82989373
 H                    -1.69696641     0.86528851     1.70635961
 
 ==============================================================================
                                internuclear distances
 ------------------------------------------------------------------------------
       center one      |      center two      | atomic units |  angstroms
 ------------------------------------------------------------------------------
    2 C                |   1 C                |     2.53478  |     1.34135
    3 H                |   2 C                |     2.06304  |     1.09171
    4 H                |   2 C                |     2.06210  |     1.09121
    5 C                |   1 C                |     2.85369  |     1.51011
    6 H                |   1 C                |     2.07316  |     1.09707
    7 C                |   5 C                |     2.89656  |     1.53279
    8 H                |   5 C                |     2.09062  |     1.10631
    9 H                |   5 C                |     2.09062  |     1.10631
   10 H                |   7 C                |     2.07950  |     1.10042
   11 H                |   7 C                |     2.07950  |     1.10043
   12 H                |   7 C                |     2.07768  |     1.09946
 ------------------------------------------------------------------------------
                         number of included internuclear distances:         11
 ==============================================================================



 ==============================================================================
                                 internuclear angles
 ------------------------------------------------------------------------------
        center 1       |       center 2       |       center 3       |  degrees
 ------------------------------------------------------------------------------
    2 C                |   1 C                |   5 C                |   126.45
    2 C                |   1 C                |   6 H                |   118.76
    5 C                |   1 C                |   6 H                |   114.80
    1 C                |   2 C                |   3 H                |   122.29
    1 C                |   2 C                |   4 H                |   121.43
    3 H                |   2 C                |   4 H                |   116.28
    1 C                |   5 C                |   7 C                |   115.70
    1 C                |   5 C                |   8 H                |   108.37
    1 C                |   5 C                |   9 H                |   108.37
    7 C                |   5 C                |   8 H                |   109.53
    7 C                |   5 C                |   9 H                |   109.54
    8 H                |   5 C                |   9 H                |   104.76
    5 C                |   7 C                |  10 H                |   111.29
    5 C                |   7 C                |  11 H                |   111.29
    5 C                |   7 C                |  12 H                |   110.70
   10 H                |   7 C                |  11 H                |   107.81
   10 H                |   7 C                |  12 H                |   107.80
   11 H                |   7 C                |  12 H                |   107.80
 ------------------------------------------------------------------------------
                            number of included internuclear angles:         18
 ==============================================================================



                              Aldehyde and Ketone set
                              -----------------------
 
                                 NWChem DFT Module
                                 -----------------
 
 
                              Aldehyde and Ketone set
 
 
                      Basis "ao basis" -> "ao basis" (spherical)
                      -----
  C (Carbon)
  ----------
            Exponent  Coefficients 
       -------------- ---------------------------------------------------------
  1 S  8.50603840E+03  0.000534
  1 S  1.27573290E+03  0.004125
  1 S  2.90311870E+02  0.021171
  1 S  8.20562000E+01  0.082418
  1 S  2.64796410E+01  0.240129
 
  2 S  9.24145850E+00  1.000000
 
  3 S  3.36435300E+00  1.000000
 
  4 S  8.71741640E-01  1.000000
 
  5 S  3.63523520E-01  1.000000
 
  6 S  1.28731350E-01  1.000000
 
  7 P  3.47094960E+01  0.005330
  7 P  7.95908830E+00  0.035866
  7 P  2.37869720E+00  0.142003
  7 P  8.15400650E-01  0.342031
 
  8 P  2.89537850E-01  1.000000
 
  9 P  1.00847540E-01  1.000000
 
  H (Hydrogen)
  ------------
            Exponent  Coefficients 
       -------------- ---------------------------------------------------------
  1 S  3.40613410E+01  0.006025
  1 S  5.12357460E+00  0.045021
  1 S  1.16466260E+00  0.201897
 
  2 S  3.27230410E-01  1.000000
 
  3 S  1.03072410E-01  1.000000
 


 Summary of "ao basis" -> "ao basis" (spherical)
 ------------------------------------------------------------------------------
       Tag                 Description            Shells   Functions and Types
 ---------------- ------------------------------  ------  ---------------------
 C                        ahlrichs vtz               9       15   6s3p
 H                        ahlrichs vtz               3        3   3s




 Summary of "ao basis" -> "ao basis" (spherical)
 ------------------------------------------------------------------------------
       Tag                 Description            Shells   Functions and Types
 ---------------- ------------------------------  ------  ---------------------
 C                        ahlrichs vtz               9       15   6s3p
 H                        ahlrichs vtz               3        3   3s


  Caching 1-el integrals 
 
            General Information
            -------------------
          SCF calculation type: DFT
          Wavefunction type:  closed shell.
          No. of atoms     :    12
          No. of electrons :    32
           Alpha electrons :    16
            Beta electrons :    16
          Charge           :     0
          Spin multiplicity:     1
          Use of symmetry is: off; symmetry adaption is: off
          Maximum number of iterations: 999
          This is a Direct SCF calculation.
          AO basis - number of functions:    84
                     number of shells:    60
          Convergence on energy requested:  1.00D-08
          Convergence on density requested:  1.00D-07
          Convergence on gradient requested:  1.00D-06
 
              XC Information
              --------------
                        PBE96 Method XC Functional
          PerdewBurkeErnzerhof Exchange Functional  1.000          
            Perdew 1991 LDA Correlation Functional  1.000 local    
           PerdewBurkeErnz. Correlation Functional  1.000 non-local
 
             Grid Information
             ----------------
          Grid used for XC integration:  fine      
          Radial quadrature: Mura-Knowles        
          Angular quadrature: Lebedev. 
          Tag              B.-S. Rad. Rad. Pts. Rad. Cut. Ang. Pts.
          ---              ---------- --------- --------- ---------
          C                   0.70       70          12.0       590
          H                   0.35       60          13.0       590
          Grid pruning is: on 
          Number of quadrature shells:   760
          Spatial weights used:  Erf1
 
          Convergence Information
          -----------------------
          Convergence aids based upon iterative change in 
          total energy or number of iterations. 
          Levelshifting, if invoked, occurs when the 
          HOMO/LUMO gap drops below (HL_TOL):  1.00D-02
          DIIS, if invoked, will attempt to extrapolate 
          using up to (NFOCK): 10 stored Fock matrices.

                    Damping( 0%)  Levelshifting(0.5)       DIIS
                  --------------- ------------------- ---------------
          dE  on:    start            ASAP                start   
          dE off:    2 iters        999 iters           999 iters 

 
      Screening Tolerance Information
      -------------------------------
          Density screening/tol_rho:  1.00D-12
          AO Gaussian exp screening on grid/accAOfunc:  18
          CD Gaussian exp screening on grid/accCDfunc:  20
          XC Gaussian exp screening on grid/accXCfunc:  20
          Schwarz screening/accCoul:  1.00D-12

      Dispersion Parameters
      ---------------------

           DFT-D3BJ Model   
          s6 scale factor  :        1.000000000000
          s8 scale factor  :        0.787500000000
          a1 parameter     :        0.428900000000
          a2 parameter     :        4.440700000000
              vdW contrib  :       -0.007903065604


 Forcing the number of linearly dependent vectors to be  0
 
      Superposition of Atomic Density Guess
      -------------------------------------
 
 Sum of atomic energies:        -154.68305411
   Time after variat. SCF:      0.2
   Time prior to 1st pass:      0.2

 Grid_pts file          = ./14_EtCHCH2.gridpts.00
 Record size in doubles =  12289        No. of grid_pts per rec  =   3070
 Max. records in memory =     12        Max. recs in file   =  67550051

 Grid integrated density:      31.999976930595
 Requested integration accuracy:   0.10E-06

           Memory utilization after 1st SCF pass: 
           Heap Space remaining (MW):        0.00                 218
          Stack Space remaining (MW):      288.36           288357596

   convergence    iter        energy       DeltaE   RMS-Dens  Diis-err    time
 ---------------- ----- ----------------- --------- --------- ---------  ------
 d= 0,ls=0.0,diis     1   -157.3811329540 -2.75D+02  3.05D-02  4.43D+01     0.4
 Grid integrated density:      31.999991274542
 Requested integration accuracy:   0.10E-06
 d= 0,ls=0.0,diis     2   -156.8158751309  5.65D-01  2.01D-02  1.41D+00     0.6
 Grid integrated density:      31.999992766924
 Requested integration accuracy:   0.10E-06
 d= 0,ls=0.0,diis     3   -156.6368063101  1.79D-01  1.37D-02  2.59D+00     0.8
 Grid integrated density:      31.999990619568
 Requested integration accuracy:   0.10E-06
 d= 0,ls=0.0,diis     4   -157.0088407745 -3.72D-01  1.33D-03  6.12D-03     1.0
 Grid integrated density:      31.999990923234
 Requested integration accuracy:   0.10E-06
 d= 0,ls=0.0,diis     5   -157.0092628550 -4.22D-04  5.18D-04  4.24D-03     1.2
 Grid integrated density:      31.999990924372
 Requested integration accuracy:   0.10E-06
 d= 0,ls=0.0,diis     6   -157.0097252936 -4.62D-04  2.37D-04  6.78D-04     1.5
 Grid integrated density:      31.999990907894
 Requested integration accuracy:   0.10E-06
 d= 0,ls=0.0,diis     7   -157.0098172645 -9.20D-05  5.65D-05  6.56D-05     1.7
 Grid integrated density:      31.999990892874
 Requested integration accuracy:   0.10E-06
 d= 0,ls=0.0,diis     8   -157.0098259113 -8.65D-06  1.70D-05  1.14D-06     1.9
 Grid integrated density:      31.999990894928
 Requested integration accuracy:   0.10E-06
 d= 0,ls=0.0,diis     9   -157.0098261019 -1.91D-07  2.99D-06  3.43D-08     2.1
 Grid integrated density:      31.999990894887
 Requested integration accuracy:   0.10E-06
 d= 0,ls=0.0,diis    10   -157.0098261090 -7.20D-09  2.56D-07  2.99D-10     2.3
 Grid integrated density:      31.999990894854
 Requested integration accuracy:   0.10E-06
 d= 0,ls=0.0,diis    11   -157.0098261091 -4.74D-11  5.88D-08  6.34D-11     2.5


         Total DFT energy =     -157.009826109094
      One electron energy =     -443.223430532075
           Coulomb energy =      192.569185556129
          Exchange energy =      -23.358103154556
       Correlation energy =       -1.017827848962
 Nuclear repulsion energy =      118.028252935973

    Dispersion correction =       -0.007903065604

 Numeric. integr. density =       31.999990894854

     Total iterative time =      2.3s


 
                       DFT Final Molecular Orbital Analysis
                       ------------------------------------
 
 Vector    1  Occ=2.000000D+00  E=-9.897512D+00
              MO Center= -9.2D-01,  2.0D-01, -2.2D-01, r^2= 3.5D-02
   Bfn.  Coefficient  Atom+Function         Bfn.  Coefficient  Atom+Function  
  ----- ------------  ---------------      ----- ------------  ---------------
    38      0.423640   5 C  s                39      0.358771   5 C  s         
    37      0.308348   5 C  s                40      0.057659   5 C  s         
 
 Vector    2  Occ=2.000000D+00  E=-9.896278D+00
              MO Center=  3.1D-01, -3.0D-01, -9.3D-01, r^2= 3.6D-02
   Bfn.  Coefficient  Atom+Function         Bfn.  Coefficient  Atom+Function  
  ----- ------------  ---------------      ----- ------------  ---------------
     2      0.423445   1 C  s                 3      0.358860   1 C  s         
     1      0.308241   1 C  s                 4      0.057564   1 C  s         
 
 Vector    3  Occ=2.000000D+00  E=-9.881845D+00
              MO Center= -7.5D-01,  5.0D-01,  1.3D+00, r^2= 2.8D-02
   Bfn.  Coefficient  Atom+Function         Bfn.  Coefficient  Atom+Function  
  ----- ------------  ---------------      ----- ------------  ---------------
    56      0.424258   7 C  s                57      0.359438   7 C  s         
    55      0.308835   7 C  s                58      0.057530   7 C  s         
 
 Vector    4  Occ=2.000000D+00  E=-9.880185D+00
              MO Center=  1.5D+00, -5.1D-01, -3.8D-01, r^2= 2.9D-02
   Bfn.  Coefficient  Atom+Function         Bfn.  Coefficient  Atom+Function  
  ----- ------------  ---------------      ----- ------------  ---------------
    17      0.424077   2 C  s                18      0.359491   2 C  s         
    16      0.308734   2 C  s                19      0.057546   2 C  s         
 
 Vector    5  Occ=2.000000D+00  E=-7.285664D-01
              MO Center= -1.3D-01, -1.8D-02, -2.3D-01, r^2= 2.0D+00
   Bfn.  Coefficient  Atom+Function         Bfn.  Coefficient  Atom+Function  
  ----- ------------  ---------------      ----- ------------  ---------------
    41      0.317953   5 C  s                 5      0.303221   1 C  s         
    20      0.201517   2 C  s                59      0.199574   7 C  s         
    42      0.100316   5 C  s                 3     -0.092051   1 C  s         
    39     -0.089431   5 C  s                60      0.073920   7 C  s         
     2     -0.072371   1 C  s                38     -0.072351   5 C  s         
 
 Vector    6  Occ=2.000000D+00  E=-6.565584D-01
              MO Center=  1.5D-01, -2.1D-02,  8.7D-02, r^2= 3.1D+00
   Bfn.  Coefficient  Atom+Function         Bfn.  Coefficient  Atom+Function  
  ----- ------------  ---------------      ----- ------------  ---------------
    59     -0.314989   7 C  s                20      0.310990   2 C  s         
     5      0.225936   1 C  s                41     -0.197598   5 C  s         
     7      0.097245   1 C  px               18     -0.091643   2 C  s         
    60     -0.089565   7 C  s                57      0.085038   7 C  s         
    17     -0.071878   2 C  s                56      0.068647   7 C  s         
 
 Vector    7  Occ=2.000000D+00  E=-5.786052D-01
              MO Center= -2.8D-01,  1.4D-01,  2.6D-01, r^2= 3.2D+00
   Bfn.  Coefficient  Atom+Function         Bfn.  Coefficient  Atom+Function  
  ----- ------------  ---------------      ----- ------------  ---------------
    59      0.311958   7 C  s                41     -0.273266   5 C  s         
    20      0.222299   2 C  s                60      0.135852   7 C  s         
     7      0.121054   1 C  px                5     -0.112067   1 C  s         
    45      0.103084   5 C  pz               42     -0.099908   5 C  s         
    57     -0.083533   7 C  s                10      0.077795   1 C  px        
 
 Vector    8  Occ=2.000000D+00  E=-4.834528D-01
              MO Center=  4.7D-01, -2.2D-01, -3.9D-01, r^2= 3.5D+00
   Bfn.  Coefficient  Atom+Function         Bfn.  Coefficient  Atom+Function  
  ----- ------------  ---------------      ----- ------------  ---------------
     5      0.295879   1 C  s                20     -0.238350   2 C  s         
    41     -0.199704   5 C  s                59      0.125069   7 C  s         
    22     -0.122064   2 C  px               53      0.117808   6 H  s         
    32     -0.107370   3 H  s                52      0.101711   6 H  s         
     9     -0.094367   1 C  pz               24     -0.093870   2 C  pz        
 
 Vector    9  Occ=2.000000D+00  E=-4.272951D-01
              MO Center=  3.3D-01, -1.7D-01, -3.3D-01, r^2= 3.4D+00
   Bfn.  Coefficient  Atom+Function         Bfn.  Coefficient  Atom+Function  
  ----- ------------  ---------------      ----- ------------  ---------------
     9      0.195818   1 C  pz               43      0.163535   5 C  px        
    12      0.155442   1 C  pz               24      0.145031   2 C  pz        
    46      0.129088   5 C  px               22     -0.124738   2 C  px        
    27      0.120671   2 C  pz               61      0.117036   7 C  px        
    35     -0.111105   4 H  s                64      0.105205   7 C  px        
 
 Vector   10  Occ=2.000000D+00  E=-4.018042D-01
              MO Center= -8.2D-01,  3.0D-01,  3.2D-01, r^2= 2.1D+00
   Bfn.  Coefficient  Atom+Function         Bfn.  Coefficient  Atom+Function  
  ----- ------------  ---------------      ----- ------------  ---------------
    44      0.233609   5 C  py               47      0.202039   5 C  py        
    62      0.196587   7 C  py               65      0.165427   7 C  py        
    71      0.117774   8 H  s                74     -0.117778   9 H  s         
    70      0.099604   8 H  s                73     -0.099612   9 H  s         
    77      0.098612  10 H  s                80     -0.098696  11 H  s         
 
 Vector   11  Occ=2.000000D+00  E=-3.791610D-01
              MO Center=  3.9D-01, -1.3D-01, -8.6D-02, r^2= 3.0D+00
   Bfn.  Coefficient  Atom+Function         Bfn.  Coefficient  Atom+Function  
  ----- ------------  ---------------      ----- ------------  ---------------
     7      0.232900   1 C  px               22     -0.216703   2 C  px        
    10      0.156113   1 C  px               45      0.144255   5 C  pz        
    25     -0.137516   2 C  px               24     -0.132772   2 C  pz        
    61     -0.123124   7 C  px               48      0.121979   5 C  pz        
    63     -0.120736   7 C  pz                9      0.115150   1 C  pz        
 
 Vector   12  Occ=2.000000D+00  E=-3.455010D-01
              MO Center=  6.3D-02,  1.1D-01,  5.5D-01, r^2= 4.1D+00
   Bfn.  Coefficient  Atom+Function         Bfn.  Coefficient  Atom+Function  
  ----- ------------  ---------------      ----- ------------  ---------------
    61     -0.185766   7 C  px               24      0.181244   2 C  pz        
    83      0.175744  12 H  s                64     -0.151895   7 C  px        
    63      0.149117   7 C  pz               27      0.143941   2 C  pz        
    35     -0.141965   4 H  s                82      0.131051  12 H  s         
    45     -0.125751   5 C  pz               32      0.121393   3 H  s         
 
 Vector   13  Occ=2.000000D+00  E=-3.126230D-01
              MO Center= -6.5D-01,  3.4D-01,  6.8D-01, r^2= 2.5D+00
   Bfn.  Coefficient  Atom+Function         Bfn.  Coefficient  Atom+Function  
  ----- ------------  ---------------      ----- ------------  ---------------
    62      0.239962   7 C  py               65      0.203712   7 C  py        
    44     -0.177736   5 C  py               77      0.171777  10 H  s         
    80     -0.171745  11 H  s                47     -0.155315   5 C  py        
    71     -0.131240   8 H  s                74      0.131410   9 H  s         
    76      0.125178  10 H  s                79     -0.125150  11 H  s         
 
 Vector   14  Occ=2.000000D+00  E=-3.092456D-01
              MO Center= -5.7D-01,  2.3D-01,  3.0D-01, r^2= 2.9D+00
   Bfn.  Coefficient  Atom+Function         Bfn.  Coefficient  Atom+Function  
  ----- ------------  ---------------      ----- ------------  ---------------
    61     -0.179198   7 C  px               43      0.176057   5 C  px        
    63     -0.167274   7 C  pz               45      0.159672   5 C  pz        
    64     -0.152464   7 C  px                7     -0.149667   1 C  px        
    46      0.144954   5 C  px               66     -0.143187   7 C  pz        
    48      0.135419   5 C  pz               22      0.125210   2 C  px        
 
 Vector   15  Occ=2.000000D+00  E=-2.951490D-01
              MO Center=  2.1D-01, -1.3D-01, -3.3D-01, r^2= 3.6D+00
   Bfn.  Coefficient  Atom+Function         Bfn.  Coefficient  Atom+Function  
  ----- ------------  ---------------      ----- ------------  ---------------
     9      0.203979   1 C  pz               53     -0.178779   6 H  s         
    12      0.167060   1 C  pz               45     -0.151329   5 C  pz        
    43      0.144897   5 C  px               24     -0.140282   2 C  pz        
    32     -0.138855   3 H  s                63      0.139195   7 C  pz        
    54     -0.136516   6 H  s                35      0.133072   4 H  s         
 
 Vector   16  Occ=2.000000D+00  E=-2.262751D-01
              MO Center=  7.4D-01, -3.4D-01, -5.9D-01, r^2= 2.2D+00
   Bfn.  Coefficient  Atom+Function         Bfn.  Coefficient  Atom+Function  
  ----- ------------  ---------------      ----- ------------  ---------------
    23      0.279728   2 C  py               26      0.261330   2 C  py        
     8      0.250335   1 C  py               11      0.234926   1 C  py        
    29      0.163336   2 C  py               14      0.131652   1 C  py        
    71     -0.109509   8 H  s                74      0.109512   9 H  s         
    44     -0.095362   5 C  py               72     -0.088441   8 H  s         
 
 Vector   17  Occ=0.000000D+00  E=-1.845184D-02
              MO Center=  8.1D-01, -3.7D-01, -6.3D-01, r^2= 2.7D+00
   Bfn.  Coefficient  Atom+Function         Bfn.  Coefficient  Atom+Function  
  ----- ------------  ---------------      ----- ------------  ---------------
    14      0.582594   1 C  py               29     -0.573826   2 C  py        
    11      0.331422   1 C  py                8      0.307601   1 C  py        
    26     -0.294073   2 C  py               23     -0.278826   2 C  py        
    72     -0.213678   8 H  s                75      0.213790   9 H  s         
    13      0.160357   1 C  px               28     -0.157956   2 C  px        
 
 Vector   18  Occ=0.000000D+00  E= 2.600219D-02
              MO Center= -7.2D-01,  2.4D-01,  1.6D-01, r^2= 7.7D+00
   Bfn.  Coefficient  Atom+Function         Bfn.  Coefficient  Atom+Function  
  ----- ------------  ---------------      ----- ------------  ---------------
    60      1.438055   7 C  s                42      1.164759   5 C  s         
    21      0.881810   2 C  s                72     -0.826049   8 H  s         
    75     -0.825860   9 H  s                54     -0.761362   6 H  s         
    84     -0.615837  12 H  s                78     -0.570613  10 H  s         
    81     -0.571260  11 H  s                15     -0.454081   1 C  pz        
 
 Vector   19  Occ=0.000000D+00  E= 4.677193D-02
              MO Center= -1.3D-02,  1.7D-02,  5.9D-02, r^2= 8.3D+00
   Bfn.  Coefficient  Atom+Function         Bfn.  Coefficient  Atom+Function  
  ----- ------------  ---------------      ----- ------------  ---------------
    60      1.996903   7 C  s                42     -1.572791   5 C  s         
    54      1.391478   6 H  s                33     -0.946204   3 H  s         
     6     -0.844681   1 C  s                15      0.784364   1 C  pz        
    78     -0.731524  10 H  s                81     -0.731239  11 H  s         
    51     -0.558188   5 C  pz               72      0.449340   8 H  s         
 
 Vector   20  Occ=0.000000D+00  E= 6.591887D-02
              MO Center=  1.1D+00, -5.3D-01, -9.8D-01, r^2= 8.0D+00
   Bfn.  Coefficient  Atom+Function         Bfn.  Coefficient  Atom+Function  
  ----- ------------  ---------------      ----- ------------  ---------------
    21      1.981802   2 C  s                36     -1.589681   4 H  s         
    42     -1.429796   5 C  s                54     -1.152718   6 H  s         
    72      0.715722   8 H  s                75      0.717031   9 H  s         
    33     -0.688803   3 H  s                 6      0.656645   1 C  s         
    15     -0.647749   1 C  pz               84      0.583894  12 H  s         
 
 Vector   21  Occ=0.000000D+00  E= 8.081899D-02
              MO Center= -1.1D+00,  2.9D-01, -9.8D-02, r^2= 6.2D+00
   Bfn.  Coefficient  Atom+Function         Bfn.  Coefficient  Atom+Function  
  ----- ------------  ---------------      ----- ------------  ---------------
    72      1.905176   8 H  s                75     -1.906533   9 H  s         
    50     -1.506583   5 C  py               81     -0.857676  11 H  s         
    78      0.852941  10 H  s                14      0.549507   1 C  py        
    49     -0.417098   5 C  px               51      0.351736   5 C  pz        
    47     -0.240015   5 C  py               44     -0.217719   5 C  py        
 
 Vector   22  Occ=0.000000D+00  E= 9.255638D-02
              MO Center= -1.3D+00,  6.5D-01,  1.2D+00, r^2= 6.6D+00
   Bfn.  Coefficient  Atom+Function         Bfn.  Coefficient  Atom+Function  
  ----- ------------  ---------------      ----- ------------  ---------------
    84      2.534102  12 H  s                67      1.696953   7 C  px        
    42      1.278261   5 C  s                60     -1.204637   7 C  s         
    49     -0.865247   5 C  px               21      0.783901   2 C  s         
    78     -0.739401  10 H  s                81     -0.733098  11 H  s         
    72     -0.670188   8 H  s                75     -0.662804   9 H  s         
 
 Vector   23  Occ=0.000000D+00  E= 9.838291D-02
              MO Center=  1.6D-01, -6.1D-02, -7.2D-02, r^2= 9.5D+00
   Bfn.  Coefficient  Atom+Function         Bfn.  Coefficient  Atom+Function  
  ----- ------------  ---------------      ----- ------------  ---------------
     6      2.475609   1 C  s                42     -1.565435   5 C  s         
    21     -1.504522   2 C  s                54     -1.431304   6 H  s         
    84      1.208221  12 H  s                67      1.146524   7 C  px        
    60      1.128758   7 C  s                36      0.952045   4 H  s         
    78     -0.936444  10 H  s                81     -0.936070  11 H  s         
 
 Vector   24  Occ=0.000000D+00  E= 1.092880D-01
              MO Center= -4.0D-01,  3.7D-01,  1.1D+00, r^2= 5.8D+00
   Bfn.  Coefficient  Atom+Function         Bfn.  Coefficient  Atom+Function  
  ----- ------------  ---------------      ----- ------------  ---------------
    78     -2.138657  10 H  s                81      2.138526  11 H  s         
    68      1.956764   7 C  py               50     -1.626665   5 C  py        
    72      1.324131   8 H  s                75     -1.323043   9 H  s         
    67      0.538995   7 C  px               14      0.511325   1 C  py        
    69     -0.455525   7 C  pz               49     -0.446344   5 C  px        
 
 Vector   25  Occ=0.000000D+00  E= 1.192327D-01
              MO Center=  1.3D+00, -3.4D-01,  1.1D-01, r^2= 7.1D+00
   Bfn.  Coefficient  Atom+Function         Bfn.  Coefficient  Atom+Function  
  ----- ------------  ---------------      ----- ------------  ---------------
    33      2.876236   3 H  s                36     -2.437101   4 H  s         
    30     -2.406049   2 C  pz               15      1.781413   1 C  pz        
    54      1.516595   6 H  s                42     -1.298587   5 C  s         
    60      1.180623   7 C  s                28      0.848102   2 C  px        
    29     -0.793120   2 C  py               51     -0.686708   5 C  pz        
 
 Vector   26  Occ=0.000000D+00  E= 1.517353D-01
              MO Center= -6.7D-01,  2.7D-01,  3.8D-01, r^2= 5.7D+00
   Bfn.  Coefficient  Atom+Function         Bfn.  Coefficient  Atom+Function  
  ----- ------------  ---------------      ----- ------------  ---------------
    42      2.231791   5 C  s                49      2.232562   5 C  px        
    69      1.941840   7 C  pz               51      1.532274   5 C  pz        
    72      1.526059   8 H  s                75      1.527624   9 H  s         
    15     -1.496677   1 C  pz               54     -1.032865   6 H  s         
    13      0.962200   1 C  px               78     -0.923141  10 H  s         
 
 Vector   27  Occ=0.000000D+00  E= 1.633613D-01
              MO Center= -2.5D-01,  9.2D-02,  1.0D-01, r^2= 7.3D+00
   Bfn.  Coefficient  Atom+Function         Bfn.  Coefficient  Atom+Function  
  ----- ------------  ---------------      ----- ------------  ---------------
     6      3.082848   1 C  s                15      2.573377   1 C  pz        
    49     -2.270610   5 C  px               54      2.012856   6 H  s         
    28      1.674398   2 C  px               42     -1.499373   5 C  s         
    36     -1.321255   4 H  s                69      1.196696   7 C  pz        
    13     -0.984838   1 C  px               14      0.869994   1 C  py        
 
 Vector   28  Occ=0.000000D+00  E= 1.931010D-01
              MO Center=  1.3D+00, -2.9D-01,  3.3D-01, r^2= 7.5D+00
   Bfn.  Coefficient  Atom+Function         Bfn.  Coefficient  Atom+Function  
  ----- ------------  ---------------      ----- ------------  ---------------
    28      2.979499   2 C  px               13      2.256338   1 C  px        
    21     -2.119897   2 C  s                51     -1.803883   5 C  pz        
    54      1.652892   6 H  s                 6      1.644286   1 C  s         
    15      1.641288   1 C  pz               36     -1.321290   4 H  s         
    30      1.251323   2 C  pz               67     -1.173062   7 C  px        
 
 Vector   29  Occ=0.000000D+00  E= 2.017873D-01
              MO Center= -6.5D-01,  1.1D-01, -3.1D-01, r^2= 7.2D+00
   Bfn.  Coefficient  Atom+Function         Bfn.  Coefficient  Atom+Function  
  ----- ------------  ---------------      ----- ------------  ---------------
    36     -1.386002   4 H  s                54      1.389242   6 H  s         
     6      1.328608   1 C  s                51      1.318554   5 C  pz        
    15      1.197720   1 C  pz               21     -0.999381   2 C  s         
    30     -0.951011   2 C  pz               33      0.813299   3 H  s         
    28      0.795456   2 C  px               49     -0.714756   5 C  px        
 
 Vector   30  Occ=0.000000D+00  E= 2.168007D-01
              MO Center= -4.8D-01,  2.8D-01,  6.3D-01, r^2= 7.0D+00
   Bfn.  Coefficient  Atom+Function         Bfn.  Coefficient  Atom+Function  
  ----- ------------  ---------------      ----- ------------  ---------------
    68      1.753786   7 C  py               50     -0.660611   5 C  py        
    67      0.485600   7 C  px               29     -0.459687   2 C  py        
    69     -0.409422   7 C  pz               77     -0.411143  10 H  s         
    80      0.411288  11 H  s                14     -0.355524   1 C  py        
    11      0.316162   1 C  py               65     -0.308912   7 C  py        
 
 Vector   31  Occ=0.000000D+00  E= 2.279254D-01
              MO Center=  2.5D-01, -3.0D-02,  1.7D-01, r^2= 6.0D+00
   Bfn.  Coefficient  Atom+Function         Bfn.  Coefficient  Atom+Function  
  ----- ------------  ---------------      ----- ------------  ---------------
    68      1.299458   7 C  py               29      0.796060   2 C  py        
    78     -0.783154  10 H  s                81      0.781455  11 H  s         
    26     -0.473394   2 C  py               77     -0.409092  10 H  s         
    80      0.409089  11 H  s                67      0.360659   7 C  px        
    69     -0.302533   7 C  pz               71     -0.298294   8 H  s         
 
 Vector   32  Occ=0.000000D+00  E= 2.601371D-01
              MO Center=  3.8D-02, -2.2D-01, -8.8D-01, r^2= 6.1D+00
   Bfn.  Coefficient  Atom+Function         Bfn.  Coefficient  Atom+Function  
  ----- ------------  ---------------      ----- ------------  ---------------
    13      3.810365   1 C  px               51     -2.721349   5 C  pz        
    21     -2.450577   2 C  s                15      1.417713   1 C  pz        
    42      1.321809   5 C  s                60      1.108086   7 C  s         
    33     -0.978801   3 H  s                54      0.922303   6 H  s         
    28      0.805469   2 C  px               14     -0.719705   1 C  py        
 
 Vector   33  Occ=0.000000D+00  E= 2.951962D-01
              MO Center=  7.2D-02,  2.9D-02,  2.1D-01, r^2= 5.2D+00
   Bfn.  Coefficient  Atom+Function         Bfn.  Coefficient  Atom+Function  
  ----- ------------  ---------------      ----- ------------  ---------------
    13      2.915116   1 C  px               51     -2.129701   5 C  pz        
    30      1.522925   2 C  pz               33     -1.431242   3 H  s         
    15      1.374287   1 C  pz               21     -1.368882   2 C  s         
     6      1.293875   1 C  s                42      1.012403   5 C  s         
    28      0.719321   2 C  px               83      0.636470  12 H  s         
 
 Vector   34  Occ=0.000000D+00  E= 3.017381D-01
              MO Center= -1.1D-01, -5.9D-02, -3.8D-01, r^2= 4.7D+00
   Bfn.  Coefficient  Atom+Function         Bfn.  Coefficient  Atom+Function  
  ----- ------------  ---------------      ----- ------------  ---------------
    33      2.254731   3 H  s                30     -1.934870   2 C  pz        
    13     -1.610185   1 C  px               21      1.079616   2 C  s         
    51      1.010860   5 C  pz               69      0.942520   7 C  pz        
    42     -0.887332   5 C  s                46     -0.778291   5 C  px        
    78     -0.715304  10 H  s                81     -0.713829  11 H  s         
 
 Vector   35  Occ=0.000000D+00  E= 3.044137D-01
              MO Center=  1.8D-01, -2.1D-01, -6.9D-01, r^2= 6.7D+00
   Bfn.  Coefficient  Atom+Function         Bfn.  Coefficient  Atom+Function  
  ----- ------------  ---------------      ----- ------------  ---------------
    50     -2.731401   5 C  py               14      2.485685   1 C  py        
    68      1.503568   7 C  py               29     -1.200588   2 C  py        
    49     -0.752585   5 C  px               13      0.684450   1 C  px        
    51      0.636195   5 C  pz               11     -0.597364   1 C  py        
    15     -0.578428   1 C  pz               78     -0.495645  10 H  s         
 
 Vector   36  Occ=0.000000D+00  E= 3.209595D-01
              MO Center=  1.4D-01, -9.2D-02, -2.3D-01, r^2= 5.6D+00
   Bfn.  Coefficient  Atom+Function         Bfn.  Coefficient  Atom+Function  
  ----- ------------  ---------------      ----- ------------  ---------------
    50      3.287555   5 C  py               72     -1.502880   8 H  s         
    75      1.500814   9 H  s                68     -1.429031   7 C  py        
    49      0.904464   5 C  px               29     -0.879926   2 C  py        
    51     -0.768967   5 C  pz               78      0.670226  10 H  s         
    81     -0.668109  11 H  s                71     -0.504996   8 H  s         
 
 Vector   37  Occ=0.000000D+00  E= 3.834563D-01
              MO Center= -6.1D-01,  2.6D-01,  4.1D-01, r^2= 4.9D+00
   Bfn.  Coefficient  Atom+Function         Bfn.  Coefficient  Atom+Function  
  ----- ------------  ---------------      ----- ------------  ---------------
    51      3.270497   5 C  pz               69      2.204012   7 C  pz        
    60     -1.647632   7 C  s                67      1.426400   7 C  px        
    42      1.416744   5 C  s                72      1.183916   8 H  s         
    75      1.185349   9 H  s                78     -1.038451  10 H  s         
    81     -1.039944  11 H  s                15     -1.021043   1 C  pz        
 
 Vector   38  Occ=0.000000D+00  E= 3.973830D-01
              MO Center=  2.9D-01, -1.5D-01, -3.2D-01, r^2= 8.1D+00
   Bfn.  Coefficient  Atom+Function         Bfn.  Coefficient  Atom+Function  
  ----- ------------  ---------------      ----- ------------  ---------------
    13      3.857077   1 C  px               84      2.861259  12 H  s         
    36     -2.672889   4 H  s                28      2.601875   2 C  px        
    51     -2.549940   5 C  pz               21     -2.396412   2 C  s         
    67      1.866370   7 C  px               69     -1.769018   7 C  pz        
    54     -1.722462   6 H  s                15     -1.614794   1 C  pz        
 
 Vector   39  Occ=0.000000D+00  E= 4.040024D-01
              MO Center= -1.0D+00,  3.4D-01,  2.7D-01, r^2= 5.8D+00
   Bfn.  Coefficient  Atom+Function         Bfn.  Coefficient  Atom+Function  
  ----- ------------  ---------------      ----- ------------  ---------------
    72      2.551700   8 H  s                75     -2.556744   9 H  s         
    50     -2.086766   5 C  py               78      2.086546  10 H  s         
    81     -2.082407  11 H  s                68     -1.582981   7 C  py        
    47      0.841353   5 C  py               71     -0.806009   8 H  s         
    74      0.806979   9 H  s                65      0.654068   7 C  py        
 
 Vector   40  Occ=0.000000D+00  E= 4.059456D-01
              MO Center=  8.3D-01, -3.0D-01, -3.0D-01, r^2= 6.7D+00
   Bfn.  Coefficient  Atom+Function         Bfn.  Coefficient  Atom+Function  
  ----- ------------  ---------------      ----- ------------  ---------------
    33      3.747666   3 H  s                30     -3.252643   2 C  pz        
    67     -1.909334   7 C  px                6     -1.822349   1 C  s         
    54     -1.541564   6 H  s                36     -1.530884   4 H  s         
    21      1.242554   2 C  s                51     -1.172324   5 C  pz        
    13     -1.128851   1 C  px               53      1.091693   6 H  s         
 
 Vector   41  Occ=0.000000D+00  E= 4.233839D-01
              MO Center=  1.5D-02, -6.8D-03, -1.4D-02, r^2= 7.6D+00
   Bfn.  Coefficient  Atom+Function         Bfn.  Coefficient  Atom+Function  
  ----- ------------  ---------------      ----- ------------  ---------------
    15      4.959480   1 C  pz               54      3.783469   6 H  s         
    21     -3.062178   2 C  s                67     -2.734123   7 C  px        
    84     -2.656326  12 H  s                30     -1.838393   2 C  pz        
    51     -1.846924   5 C  pz               36     -1.791628   4 H  s         
    60      1.480764   7 C  s                13      1.230330   1 C  px        
 
 Vector   42  Occ=0.000000D+00  E= 4.340434D-01
              MO Center=  1.7D-01, -4.4D-02,  1.6D-02, r^2= 6.8D+00
   Bfn.  Coefficient  Atom+Function         Bfn.  Coefficient  Atom+Function  
  ----- ------------  ---------------      ----- ------------  ---------------
    13      3.627030   1 C  px               30      2.548377   2 C  pz        
    33     -2.137623   3 H  s                 6     -2.093746   1 C  s         
    49      1.651621   5 C  px               51     -1.471492   5 C  pz        
    72      1.159545   8 H  s                75      1.156311   9 H  s         
    21     -1.128384   2 C  s                42      0.993208   5 C  s         
 
 Vector   43  Occ=0.000000D+00  E= 4.629836D-01
              MO Center= -7.3D-01,  3.9D-01,  8.0D-01, r^2= 4.8D+00
   Bfn.  Coefficient  Atom+Function         Bfn.  Coefficient  Atom+Function  
  ----- ------------  ---------------      ----- ------------  ---------------
    78      1.957929  10 H  s                81     -1.964700  11 H  s         
    68     -1.396239   7 C  py               72     -1.322087   8 H  s         
    75      1.322924   9 H  s                77     -1.040541  10 H  s         
    80      1.041693  11 H  s                65      0.906182   7 C  py        
    50      0.859369   5 C  py               71      0.852704   8 H  s         
 
 Vector   44  Occ=0.000000D+00  E= 4.666402D-01
              MO Center=  4.9D-01, -2.8D-01, -6.2D-01, r^2= 7.1D+00
   Bfn.  Coefficient  Atom+Function         Bfn.  Coefficient  Atom+Function  
  ----- ------------  ---------------      ----- ------------  ---------------
    15      7.104435   1 C  pz               30     -6.082177   2 C  pz        
    54      5.109416   6 H  s                36     -4.300794   4 H  s         
    33      3.451723   3 H  s                42     -3.014170   5 C  s         
    28      2.876564   2 C  px               13     -2.632151   1 C  px        
    14      2.376575   1 C  py               29     -2.205488   2 C  py        
 
 Vector   45  Occ=0.000000D+00  E= 4.744799D-01
              MO Center= -6.3D-01,  2.1D-01,  1.4D-01, r^2= 6.0D+00
   Bfn.  Coefficient  Atom+Function         Bfn.  Coefficient  Atom+Function  
  ----- ------------  ---------------      ----- ------------  ---------------
    42      3.773451   5 C  s                36      2.341474   4 H  s         
    30      2.279653   2 C  pz               28     -1.980779   2 C  px        
    41     -1.838598   5 C  s                 6     -1.688098   1 C  s         
    72     -1.184122   8 H  s                75     -1.181957   9 H  s         
    15     -1.111100   1 C  pz               29      1.075237   2 C  py        
 
 Vector   46  Occ=0.000000D+00  E= 4.953905D-01
              MO Center= -7.3D-01,  5.1D-01,  1.3D+00, r^2= 5.3D+00
   Bfn.  Coefficient  Atom+Function         Bfn.  Coefficient  Atom+Function  
  ----- ------------  ---------------      ----- ------------  ---------------
    60      4.571936   7 C  s                59     -2.453623   7 C  s         
    84     -2.407992  12 H  s                 6     -1.259790   1 C  s         
    67     -1.222345   7 C  px               42     -1.163094   5 C  s         
    78     -1.081491  10 H  s                81     -1.078956  11 H  s         
    69      1.026433   7 C  pz               21      0.920349   2 C  s         
 
 Vector   47  Occ=0.000000D+00  E= 5.183870D-01
              MO Center=  5.6D-01, -2.9D-01, -6.1D-01, r^2= 6.0D+00
   Bfn.  Coefficient  Atom+Function         Bfn.  Coefficient  Atom+Function  
  ----- ------------  ---------------      ----- ------------  ---------------
     6      5.040792   1 C  s                21      3.907671   2 C  s         
    13     -2.274431   1 C  px                5     -2.078315   1 C  s         
    20     -2.053002   2 C  s                49     -1.810200   5 C  px        
    36     -1.565808   4 H  s                51      1.508224   5 C  pz        
    33     -1.167298   3 H  s                28      1.156992   2 C  px        
 
 Vector   48  Occ=0.000000D+00  E= 5.392592D-01
              MO Center=  5.5D-01, -1.6D-01, -3.1D-02, r^2= 5.7D+00
   Bfn.  Coefficient  Atom+Function         Bfn.  Coefficient  Atom+Function  
  ----- ------------  ---------------      ----- ------------  ---------------
    21      3.982896   2 C  s                33     -3.089161   3 H  s         
    15     -2.770405   1 C  pz               28      1.762259   2 C  px        
    69     -1.443582   7 C  pz               30      1.427720   2 C  pz        
    67      1.404861   7 C  px               60     -1.384851   7 C  s         
    84      1.352999  12 H  s                36     -1.343868   4 H  s         
 
 Vector   49  Occ=0.000000D+00  E= 6.048720D-01
              MO Center=  1.0D+00, -4.4D-01, -6.9D-01, r^2= 4.7D+00
   Bfn.  Coefficient  Atom+Function         Bfn.  Coefficient  Atom+Function  
  ----- ------------  ---------------      ----- ------------  ---------------
    30      5.798466   2 C  pz               15     -4.936306   1 C  pz        
    13      3.212168   1 C  px               42      2.923131   5 C  s         
    36      2.596017   4 H  s                21     -2.253704   2 C  s         
    33     -2.247417   3 H  s                54     -2.187003   6 H  s         
    14     -2.032255   1 C  py                6      1.875405   1 C  s         
 
 Vector   50  Occ=0.000000D+00  E= 6.556298D-01
              MO Center=  7.5D-01, -2.9D-01, -3.8D-01, r^2= 4.7D+00
   Bfn.  Coefficient  Atom+Function         Bfn.  Coefficient  Atom+Function  
  ----- ------------  ---------------      ----- ------------  ---------------
    21      8.535196   2 C  s                 6     -7.283927   1 C  s         
    15     -4.482810   1 C  pz               28     -3.743872   2 C  px        
    13     -3.387974   1 C  px                5      2.533014   1 C  s         
    54     -2.332565   6 H  s                20     -2.257340   2 C  s         
    60      1.783048   7 C  s                42     -1.549326   5 C  s         
 
 Vector   51  Occ=0.000000D+00  E= 6.766107D-01
              MO Center= -2.4D-01,  1.8D-01,  4.8D-01, r^2= 5.3D+00
   Bfn.  Coefficient  Atom+Function         Bfn.  Coefficient  Atom+Function  
  ----- ------------  ---------------      ----- ------------  ---------------
    60      6.317741   7 C  s                13      4.078036   1 C  px        
    21     -3.469135   2 C  s                42      3.376481   5 C  s         
    51     -2.774564   5 C  pz               15     -2.237854   1 C  pz        
    59     -2.169343   7 C  s                30      1.894441   2 C  pz        
    69     -1.813870   7 C  pz               14     -1.643599   1 C  py        
 
 Vector   52  Occ=0.000000D+00  E= 7.726222D-01
              MO Center= -6.0D-01,  2.0D-01,  1.4D-01, r^2= 6.0D+00
   Bfn.  Coefficient  Atom+Function         Bfn.  Coefficient  Atom+Function  
  ----- ------------  ---------------      ----- ------------  ---------------
    42     15.447586   5 C  s                 6     -9.014547   1 C  s         
    60     -8.140779   7 C  s                15     -6.053754   1 C  pz        
    21      4.785130   2 C  s                41     -3.070755   5 C  s         
    28     -2.863069   2 C  px               54     -2.821775   6 H  s         
    49      2.754542   5 C  px               30      2.669923   2 C  pz        
 
 Vector   53  Occ=0.000000D+00  E= 1.375795D+00
              MO Center= -6.5D-01,  2.4D-01,  2.6D-01, r^2= 3.2D+00
   Bfn.  Coefficient  Atom+Function         Bfn.  Coefficient  Atom+Function  
  ----- ------------  ---------------      ----- ------------  ---------------
    48      1.727860   5 C  pz               51     -1.645104   5 C  pz        
    66      1.550021   7 C  pz               69     -1.542144   7 C  pz        
    84      1.205499  12 H  s                46     -1.187744   5 C  px        
    13      1.024967   1 C  px               21     -0.983596   2 C  s         
     5      0.868955   1 C  s                10     -0.810184   1 C  px        
 
 Vector   54  Occ=0.000000D+00  E= 1.384760D+00
              MO Center=  9.8D-01, -4.1D-01, -6.2D-01, r^2= 1.9D+00
   Bfn.  Coefficient  Atom+Function         Bfn.  Coefficient  Atom+Function  
  ----- ------------  ---------------      ----- ------------  ---------------
    26      1.093852   2 C  py               11      0.928224   1 C  py        
    23     -0.905871   2 C  py                8     -0.789331   1 C  py        
    14     -0.463590   1 C  py               29     -0.445336   2 C  py        
    25      0.299478   2 C  px               10      0.255292   1 C  px        
    27     -0.255088   2 C  pz               22     -0.248597   2 C  px        
 
 Vector   55  Occ=0.000000D+00  E= 1.400775D+00
              MO Center=  4.6D-01, -2.6D-01, -6.0D-01, r^2= 2.8D+00
   Bfn.  Coefficient  Atom+Function         Bfn.  Coefficient  Atom+Function  
  ----- ------------  ---------------      ----- ------------  ---------------
    10      2.225304   1 C  px               28     -2.010206   2 C  px        
    42      1.647099   5 C  s                25      1.600842   2 C  px        
    13     -1.564808   1 C  px               15     -1.570519   1 C  pz        
    36      1.329358   4 H  s                54     -1.268312   6 H  s         
    20     -0.992076   2 C  s                 6     -0.975181   1 C  s         
 
 Vector   56  Occ=0.000000D+00  E= 1.428284D+00
              MO Center=  1.8D-01, -1.2D-01, -3.0D-01, r^2= 3.1D+00
   Bfn.  Coefficient  Atom+Function         Bfn.  Coefficient  Atom+Function  
  ----- ------------  ---------------      ----- ------------  ---------------
    50      1.226606   5 C  py               11     -1.041956   1 C  py        
    26      1.004582   2 C  py               47     -0.953915   5 C  py        
    72     -0.930234   8 H  s                75      0.930275   9 H  s         
     8      0.688599   1 C  py               29     -0.685976   2 C  py        
    44      0.658654   5 C  py               65     -0.644903   7 C  py        
 
 Vector   57  Occ=0.000000D+00  E= 1.450078D+00
              MO Center= -3.1D-01,  1.9D-01,  4.6D-01, r^2= 3.4D+00
   Bfn.  Coefficient  Atom+Function         Bfn.  Coefficient  Atom+Function  
  ----- ------------  ---------------      ----- ------------  ---------------
    65      1.576248   7 C  py               68     -1.261838   7 C  py        
    78      1.026310  10 H  s                81     -1.026103  11 H  s         
    62     -0.942606   7 C  py               11     -0.844621   1 C  py        
    26      0.792027   2 C  py               14      0.718076   1 C  py        
    50     -0.683501   5 C  py               47      0.609165   5 C  py        
 
 Vector   58  Occ=0.000000D+00  E= 1.454119D+00
              MO Center=  3.7D-01, -1.1D-01, -2.2D-02, r^2= 3.9D+00
   Bfn.  Coefficient  Atom+Function         Bfn.  Coefficient  Atom+Function  
  ----- ------------  ---------------      ----- ------------  ---------------
    42      3.267675   5 C  s                30      1.949999   2 C  pz        
    60     -1.917618   7 C  s                 6     -1.704042   1 C  s         
    66      1.572618   7 C  pz               33     -1.424801   3 H  s         
    12     -1.294330   1 C  pz               27     -1.169959   2 C  pz        
    46      1.145342   5 C  px               21      1.040834   2 C  s         
 
 Vector   59  Occ=0.000000D+00  E= 1.500712D+00
              MO Center=  3.0D-01, -1.0D-01, -8.3D-02, r^2= 3.5D+00
   Bfn.  Coefficient  Atom+Function         Bfn.  Coefficient  Atom+Function  
  ----- ------------  ---------------      ----- ------------  ---------------
    42     -3.134265   5 C  s                15      2.892466   1 C  pz        
    54      1.902655   6 H  s                25      1.753778   2 C  px        
    21     -1.738645   2 C  s                60      1.629439   7 C  s         
    48     -1.216980   5 C  pz                6      1.012154   1 C  s         
    64     -1.012837   7 C  px               10      0.953234   1 C  px        
 
 Vector   60  Occ=0.000000D+00  E= 1.532617D+00
              MO Center= -4.7D-01,  2.8D-01,  6.5D-01, r^2= 3.1D+00
   Bfn.  Coefficient  Atom+Function         Bfn.  Coefficient  Atom+Function  
  ----- ------------  ---------------      ----- ------------  ---------------
    64      1.621365   7 C  px               67     -1.516066   7 C  px        
    84     -1.165263  12 H  s                61     -0.892607   7 C  px        
    66      0.843794   7 C  pz                6     -0.751418   1 C  s         
    33      0.654817   3 H  s                48     -0.638604   5 C  pz        
    28     -0.625182   2 C  px               63     -0.565697   7 C  pz        
 
 Vector   61  Occ=0.000000D+00  E= 1.594942D+00
              MO Center=  1.8D-02,  2.6D-02,  1.3D-01, r^2= 4.2D+00
   Bfn.  Coefficient  Atom+Function         Bfn.  Coefficient  Atom+Function  
  ----- ------------  ---------------      ----- ------------  ---------------
    27      1.679147   2 C  pz               46      1.496204   5 C  px        
    67      1.435235   7 C  px               64     -1.372903   7 C  px        
    84      1.284625  12 H  s                30     -1.256546   2 C  pz        
    49     -1.224544   5 C  px               12     -1.122415   1 C  pz        
    36     -0.904772   4 H  s                32     -0.896508   3 H  s         
 
 Vector   62  Occ=0.000000D+00  E= 1.595515D+00
              MO Center= -7.3D-01,  2.4D-01,  1.5D-01, r^2= 2.9D+00
   Bfn.  Coefficient  Atom+Function         Bfn.  Coefficient  Atom+Function  
  ----- ------------  ---------------      ----- ------------  ---------------
    47      2.133341   5 C  py               50     -2.027424   5 C  py        
    65     -1.524647   7 C  py               68      1.389380   7 C  py        
    72      1.264697   8 H  s                75     -1.247229   9 H  s         
    44     -0.978218   5 C  py               81      0.928106  11 H  s         
    78     -0.911669  10 H  s                71     -0.858793   8 H  s         
 
 Vector   63  Occ=0.000000D+00  E= 1.711874D+00
              MO Center= -1.7D-01, -2.2D-02, -3.0D-01, r^2= 3.4D+00
   Bfn.  Coefficient  Atom+Function         Bfn.  Coefficient  Atom+Function  
  ----- ------------  ---------------      ----- ------------  ---------------
    21      1.486781   2 C  s                10      1.463240   1 C  px        
    51      1.458821   5 C  pz               13     -1.387676   1 C  px        
    48     -1.372622   5 C  pz               60     -1.283495   7 C  s         
    15     -1.102696   1 C  pz               36     -0.978452   4 H  s         
    30     -0.930009   2 C  pz               54     -0.887308   6 H  s         
 
 Vector   64  Occ=0.000000D+00  E= 1.801250D+00
              MO Center=  5.0D-01, -2.9D-01, -6.4D-01, r^2= 3.4D+00
   Bfn.  Coefficient  Atom+Function         Bfn.  Coefficient  Atom+Function  
  ----- ------------  ---------------      ----- ------------  ---------------
    12      2.016761   1 C  pz               27     -1.548109   2 C  pz        
    30      1.508774   2 C  pz               15     -1.487206   1 C  pz        
    54     -1.419058   6 H  s                36      1.369510   4 H  s         
    33     -1.310690   3 H  s                 6      1.287120   1 C  s         
    53      1.258146   6 H  s                35     -1.100041   4 H  s         
 
 Vector   65  Occ=0.000000D+00  E= 2.130123D+00
              MO Center=  5.0D-01, -1.2D-01,  6.0D-02, r^2= 5.0D+00
   Bfn.  Coefficient  Atom+Function         Bfn.  Coefficient  Atom+Function  
  ----- ------------  ---------------      ----- ------------  ---------------
     5      1.702831   1 C  s                20     -1.671753   2 C  s         
    41     -1.577447   5 C  s                32      1.415082   3 H  s         
    40      1.223192   5 C  s                59      1.220015   7 C  s         
     4     -1.208699   1 C  s                19      1.177213   2 C  s         
    33     -1.114313   3 H  s                71      0.900507   8 H  s         
 
 Vector   66  Occ=0.000000D+00  E= 2.140760D+00
              MO Center= -8.9D-02,  2.4D-01,  9.4D-01, r^2= 5.0D+00
   Bfn.  Coefficient  Atom+Function         Bfn.  Coefficient  Atom+Function  
  ----- ------------  ---------------      ----- ------------  ---------------
    59      2.376807   7 C  s                58     -1.967527   7 C  s         
    83     -1.396097  12 H  s                20      1.297015   2 C  s         
    42     -1.124398   5 C  s                77     -1.073904  10 H  s         
    80     -1.072496  11 H  s                84      0.995909  12 H  s         
    35     -0.930041   4 H  s                19     -0.914346   2 C  s         
 
 Vector   67  Occ=0.000000D+00  E= 2.215213D+00
              MO Center= -7.3D-01,  1.7D-01, -1.4D-01, r^2= 3.9D+00
   Bfn.  Coefficient  Atom+Function         Bfn.  Coefficient  Atom+Function  
  ----- ------------  ---------------      ----- ------------  ---------------
    41      1.888561   5 C  s                40     -1.634242   5 C  s         
    71     -1.160649   8 H  s                74     -1.160813   9 H  s         
    20     -1.105037   2 C  s                19      1.014672   2 C  s         
    13      0.920959   1 C  px               59      0.848715   7 C  s         
    58     -0.802618   7 C  s                35      0.696510   4 H  s         
 
 Vector   68  Occ=0.000000D+00  E= 2.292043D+00
              MO Center= -2.8D-01,  4.3D-01,  1.5D+00, r^2= 2.4D+00
   Bfn.  Coefficient  Atom+Function         Bfn.  Coefficient  Atom+Function  
  ----- ------------  ---------------      ----- ------------  ---------------
    77      1.560363  10 H  s                80     -1.561281  11 H  s         
    76     -1.087352  10 H  s                79      1.087720  11 H  s         
    78     -0.947698  10 H  s                81      0.947960  11 H  s         
    71      0.494370   8 H  s                74     -0.492188   9 H  s         
    70     -0.300745   8 H  s                73      0.299548   9 H  s         
 
 Vector   69  Occ=0.000000D+00  E= 2.300278D+00
              MO Center=  4.8D-01, -4.0D-01, -1.2D+00, r^2= 3.9D+00
   Bfn.  Coefficient  Atom+Function         Bfn.  Coefficient  Atom+Function  
  ----- ------------  ---------------      ----- ------------  ---------------
    15      1.868845   1 C  pz               53      1.674128   6 H  s         
     5     -1.412951   1 C  s                21     -1.250250   2 C  s         
     4      1.128964   1 C  s                 6      1.096709   1 C  s         
    52     -1.094445   6 H  s                35      0.991856   4 H  s         
    42     -0.892770   5 C  s                40      0.722076   5 C  s         
 
 Vector   70  Occ=0.000000D+00  E= 2.346122D+00
              MO Center= -1.4D+00,  3.0D-01, -3.9D-01, r^2= 2.4D+00
   Bfn.  Coefficient  Atom+Function         Bfn.  Coefficient  Atom+Function  
  ----- ------------  ---------------      ----- ------------  ---------------
    71      1.502095   8 H  s                74     -1.503714   9 H  s         
    70     -1.088754   8 H  s                73      1.090282   9 H  s         
    50     -0.836431   5 C  py               68      0.616015   7 C  py        
    75      0.556493   9 H  s                72     -0.551473   8 H  s         
    14      0.512610   1 C  py               77     -0.326483  10 H  s         
 
 Vector   71  Occ=0.000000D+00  E= 2.355672D+00
              MO Center= -6.4D-01,  4.3D-01,  1.1D+00, r^2= 4.0D+00
   Bfn.  Coefficient  Atom+Function         Bfn.  Coefficient  Atom+Function  
  ----- ------------  ---------------      ----- ------------  ---------------
     5      1.504384   1 C  s                83      1.355098  12 H  s         
     4     -1.249642   1 C  s                15     -1.144002   1 C  pz        
    82     -1.062936  12 H  s                30      1.057565   2 C  pz        
    80     -1.045156  11 H  s                77     -1.039820  10 H  s         
    20      1.011446   2 C  s                33     -0.896041   3 H  s         
 
 Vector   72  Occ=0.000000D+00  E= 2.441418D+00
              MO Center=  1.2D+00, -3.8D-01, -2.1D-01, r^2= 3.8D+00
   Bfn.  Coefficient  Atom+Function         Bfn.  Coefficient  Atom+Function  
  ----- ------------  ---------------      ----- ------------  ---------------
    15      3.144834   1 C  pz               30     -2.658906   2 C  pz        
    28      1.637617   2 C  px               32      1.532262   3 H  s         
    54      1.374764   6 H  s                36     -1.246189   4 H  s         
    35     -1.177042   4 H  s                29     -1.069265   2 C  py        
    31     -1.060617   3 H  s                21     -0.903823   2 C  s         
 
 Vector   73  Occ=0.000000D+00  E= 2.496628D+00
              MO Center=  5.2D-01, -2.7D-01, -5.4D-01, r^2= 3.6D+00
   Bfn.  Coefficient  Atom+Function         Bfn.  Coefficient  Atom+Function  
  ----- ------------  ---------------      ----- ------------  ---------------
    21     -3.199767   2 C  s                 5      3.131562   1 C  s         
    20      3.100450   2 C  s                 4     -2.484305   1 C  s         
     6     -2.440768   1 C  s                19     -2.385613   2 C  s         
    13      1.378201   1 C  px               51     -1.340714   5 C  pz        
    60      1.217391   7 C  s                15      1.100954   1 C  pz        
 
 Vector   74  Occ=0.000000D+00  E= 2.652729D+00
              MO Center=  1.1D+00, -4.4D-01, -6.2D-01, r^2= 2.3D+00
   Bfn.  Coefficient  Atom+Function         Bfn.  Coefficient  Atom+Function  
  ----- ------------  ---------------      ----- ------------  ---------------
    21      5.916123   2 C  s                 6     -5.111697   1 C  s         
    20     -4.140483   2 C  s                 5      3.740046   1 C  s         
    19      2.798627   2 C  s                 4     -2.465673   1 C  s         
    13     -2.260683   1 C  px               28     -1.344314   2 C  px        
    30     -1.037321   2 C  pz               15     -1.015027   1 C  pz        
 
 Vector   75  Occ=0.000000D+00  E= 2.722819D+00
              MO Center= -6.8D-01,  3.2D-01,  5.6D-01, r^2= 3.1D+00
   Bfn.  Coefficient  Atom+Function         Bfn.  Coefficient  Atom+Function  
  ----- ------------  ---------------      ----- ------------  ---------------
    42      4.517845   5 C  s                60      3.814833   7 C  s         
    59     -3.649000   7 C  s                41     -3.205889   5 C  s         
    58      2.642343   7 C  s                13      2.252620   1 C  px        
    40      2.200132   5 C  s                15     -1.796988   1 C  pz        
    30      1.785740   2 C  pz                6     -1.439391   1 C  s         
 
 Vector   76  Occ=0.000000D+00  E= 2.841593D+00
              MO Center= -7.8D-01,  3.1D-01,  3.9D-01, r^2= 2.8D+00
   Bfn.  Coefficient  Atom+Function         Bfn.  Coefficient  Atom+Function  
  ----- ------------  ---------------      ----- ------------  ---------------
    42      8.855622   5 C  s                60     -6.157378   7 C  s         
     6     -4.502573   1 C  s                41     -4.432311   5 C  s         
    59      3.304659   7 C  s                40      2.777965   5 C  s         
    15     -2.724500   1 C  pz               58     -2.201384   7 C  s         
    21      2.126970   2 C  s                 5      1.923994   1 C  s         
 
 Vector   77  Occ=0.000000D+00  E= 1.146847D+01
              MO Center=  9.1D-01, -4.0D-01, -6.4D-01, r^2= 8.8D-01
   Bfn.  Coefficient  Atom+Function         Bfn.  Coefficient  Atom+Function  
  ----- ------------  ---------------      ----- ------------  ---------------
    18      2.330984   2 C  s                19     -2.339083   2 C  s         
     4     -2.245016   1 C  s                 3      2.217085   1 C  s         
    20      1.923981   2 C  s                 5      1.849690   1 C  s         
    17     -1.231908   2 C  s                21     -1.177195   2 C  s         
     2     -1.169042   1 C  s                 6     -1.142180   1 C  s         
 
 Vector   78  Occ=0.000000D+00  E= 1.169158D+01
              MO Center= -7.4D-01,  5.0D-01,  1.3D+00, r^2= 4.2D-01
   Bfn.  Coefficient  Atom+Function         Bfn.  Coefficient  Atom+Function  
  ----- ------------  ---------------      ----- ------------  ---------------
    58     -3.391189   7 C  s                57      3.271531   7 C  s         
    59      2.994642   7 C  s                60     -2.299478   7 C  s         
    56     -1.711172   7 C  s                51      0.443351   5 C  pz        
    42      0.311718   5 C  s                78      0.252194  10 H  s         
    81      0.252228  11 H  s                13     -0.243925   1 C  px        
 
 Vector   79  Occ=0.000000D+00  E= 1.173005D+01
              MO Center= -8.5D-01,  1.8D-01, -2.3D-01, r^2= 5.7D-01
   Bfn.  Coefficient  Atom+Function         Bfn.  Coefficient  Atom+Function  
  ----- ------------  ---------------      ----- ------------  ---------------
    40     -3.433594   5 C  s                39      3.250511   5 C  s         
    41      3.161262   5 C  s                42     -3.018210   5 C  s         
    38     -1.693424   5 C  s                13     -0.640687   1 C  px        
    19      0.618509   2 C  s                 6      0.610688   1 C  s         
    18     -0.595870   2 C  s                20     -0.575844   2 C  s         
 
 Vector   80  Occ=0.000000D+00  E= 1.184123D+01
              MO Center=  8.3D-01, -3.8D-01, -6.5D-01, r^2= 9.0D-01
   Bfn.  Coefficient  Atom+Function         Bfn.  Coefficient  Atom+Function  
  ----- ------------  ---------------      ----- ------------  ---------------
     4     -2.551746   1 C  s                 6     -2.483218   1 C  s         
     5      2.441219   1 C  s                 3      2.408553   1 C  s         
    21      2.330081   2 C  s                19      2.318297   2 C  s         
    18     -2.206358   2 C  s                20     -2.215002   2 C  s         
     2     -1.252882   1 C  s                17      1.149477   2 C  s         
 
 Vector   81  Occ=0.000000D+00  E= 6.242276D+01
              MO Center=  9.0D-01, -4.0D-01, -6.4D-01, r^2= 6.0D-01
   Bfn.  Coefficient  Atom+Function         Bfn.  Coefficient  Atom+Function  
  ----- ------------  ---------------      ----- ------------  ---------------
    17      2.097413   2 C  s                 2      2.002856   1 C  s         
    18     -1.580905   2 C  s                 3     -1.512651   1 C  s         
    16     -1.246524   2 C  s                 1     -1.189607   1 C  s         
    19      1.028467   2 C  s                 4      0.992350   1 C  s         
    20     -0.802740   2 C  s                 5     -0.775604   1 C  s         
 
 Vector   82  Occ=0.000000D+00  E= 6.263639D+01
              MO Center= -7.4D-01,  4.9D-01,  1.2D+00, r^2= 1.8D-01
   Bfn.  Coefficient  Atom+Function         Bfn.  Coefficient  Atom+Function  
  ----- ------------  ---------------      ----- ------------  ---------------
    56      2.922987   7 C  s                57     -2.230771   7 C  s         
    55     -1.727173   7 C  s                58      1.501386   7 C  s         
    59     -1.253607   7 C  s                60      0.944611   7 C  s         
     2     -0.286602   1 C  s                 3      0.217480   1 C  s         
    38      0.207161   5 C  s                51     -0.189116   5 C  pz        
 
 Vector   83  Occ=0.000000D+00  E= 6.267502D+01
              MO Center= -8.1D-01,  1.7D-01, -2.3D-01, r^2= 3.8D-01
   Bfn.  Coefficient  Atom+Function         Bfn.  Coefficient  Atom+Function  
  ----- ------------  ---------------      ----- ------------  ---------------
    38      2.878952   5 C  s                39     -2.206048   5 C  s         
    37     -1.698487   5 C  s                40      1.515351   5 C  s         
    41     -1.324693   5 C  s                42      1.260586   5 C  s         
    17     -0.642669   2 C  s                18      0.491062   2 C  s         
    16      0.379450   2 C  s                19     -0.331030   2 C  s         
 
 Vector   84  Occ=0.000000D+00  E= 6.278947D+01
              MO Center=  7.9D-01, -3.7D-01, -6.4D-01, r^2= 7.1D-01
   Bfn.  Coefficient  Atom+Function         Bfn.  Coefficient  Atom+Function  
  ----- ------------  ---------------      ----- ------------  ---------------
     2      2.143304   1 C  s                17     -1.956624   2 C  s         
     3     -1.648901   1 C  s                18      1.503197   2 C  s         
     1     -1.261239   1 C  s                16      1.151928   2 C  s         
     4      1.140760   1 C  s                 6      1.066971   1 C  s         
     5     -1.038338   1 C  s                19     -1.030805   2 C  s         
 

 center of mass
 --------------
 x =   0.03017502 y =  -0.02054922 z =  -0.05257097

 moments of inertia (a.u.)
 ------------------
         212.918383829293          77.278828099269          82.632715940725
          77.278828099269         388.764938504313         -58.943171629669
          82.632715940725         -58.943171629669         268.275023991338
 
     Multipole analysis of the density
     ---------------------------------
 
     L   x y z        total         alpha         beta         nuclear
     -   - - -        -----         -----         ----         -------
     0   0 0 0     -0.000000    -16.000000    -16.000000     32.000000
 
     1   1 0 0     -0.197323     -0.098662     -0.098662     -0.000000
     1   0 1 0      0.052193      0.026097      0.026097     -0.000000
     1   0 0 1     -0.009174     -0.004587     -0.004587      0.000000
 
     2   2 0 0    -19.626581    -79.740445    -79.740445    139.854309
     2   1 1 0     -0.413604     23.071954     23.071954    -46.557512
     2   1 0 1      0.274943     24.024851     24.024851    -47.774759
     2   0 2 0    -21.167730    -26.739680    -26.739680     32.311630
     2   0 1 1      0.344587    -17.790918    -17.790918     35.926423
     2   0 0 2    -19.554815    -64.261402    -64.261402    108.967988
 

 Task  times  cpu:        2.3s     wall:        2.5s
 
 
                                NWChem Input Module
                                -------------------
 
 
 Summary of allocated global arrays
-----------------------------------
  No active global arrays



                         GA Statistics for process    0
                         ------------------------------

       create   destroy   get      put      acc     scatter   gather  read&inc
calls:  158      158     1.39e+04 1541     1.12e+04    0        0      447     
number of processes/call 9.04e+00 3.60e+01 6.30e+00 0.00e+00 0.00e+00
bytes total:             2.00e+07 2.50e+06 1.12e+07 0.00e+00 0.00e+00 3.58e+03
bytes remote:            1.65e+07 1.50e+06 9.59e+06 0.00e+00 0.00e+00 0.00e+00
Max memory consumed for GA by this process: 272352 bytes
 
 
 
                                     CITATION
                                     --------
                Please cite the following reference when publishing
                           results obtained with NWChem:
 
          E. Apr, E. J. Bylaska, W. A. de Jong, N. Govind, K. Kowalski,
       T. P. Straatsma, M. Valiev, H. J. J. van Dam, Y. Alexeev, J. Anchell,
       V. Anisimov, F. W. Aquino, R. Atta-Fynn, J. Autschbach, N. P. Bauman,
     J. C. Becca, D. E. Bernholdt, K. Bhaskaran-Nair, S. Bogatko, P. Borowski,
        J. Boschen, J. Brabec, A. Bruner, E. Caut, Y. Chen, G. N. Chuev,
      C. J. Cramer, J. Daily, M. J. O. Deegan, T. H. Dunning Jr., M. Dupuis,
   K. G. Dyall, G. I. Fann, S. A. Fischer, A. Fonari, H. Frchtl, L. Gagliardi,
      J. Garza, N. Gawande, S. Ghosh, K. Glaesemann, A. W. Gtz, J. Hammond,
       V. Helms, E. D. Hermes, K. Hirao, S. Hirata, M. Jacquelin, L. Jensen,
   B. G. Johnson, H. Jnsson, R. A. Kendall, M. Klemm, R. Kobayashi, V. Konkov,
      S. Krishnamoorthy, M. Krishnan, Z. Lin, R. D. Lins, R. J. Littlefield,
      A. J. Logsdail, K. Lopata, W. Ma, A. V. Marenich, J. Martin del Campo,
   D. Mejia-Rodriguez, J. E. Moore, J. M. Mullin, T. Nakajima, D. R. Nascimento,
    J. A. Nichols, P. J. Nichols, J. Nieplocha, A. Otero-de-la-Roza, B. Palmer,
    A. Panyala, T. Pirojsirikul, B. Peng, R. Peverati, J. Pittner, L. Pollack,
   R. M. Richard, P. Sadayappan, G. C. Schatz, W. A. Shelton, D. W. Silverstein,
   D. M. A. Smith, T. A. Soares, D. Song, M. Swart, H. L. Taylor, G. S. Thomas,
            V. Tipparaju, D. G. Truhlar, K. Tsemekhman, T. Van Voorhis,
     . Vzquez-Mayagoitia, P. Verma, O. Villa, A. Vishnu, K. D. Vogiatzis,
        D. Wang, J. H. Weare, M. J. Williamson, T. L. Windus, K. Woliski,
        A. T. Wong, Q. Wu, C. Yang, Q. Yu, M. Zacharias, Z. Zhang, Y. Zhao,
                                and R. J. Harrison
                        "NWChem: Past, present, and future
                         J. Chem. Phys. 152, 184102 (2020)
                               doi:10.1063/5.0004997
 
                                      AUTHORS
                                      -------
     E. Apra, E. J. Bylaska, N. Govind, K. Kowalski, M. Valiev, W. A. de Jong,
      T. P. Straatsma, H. J. J. van Dam, D. Wang, T. L. Windus, N. P. Bauman,
       A. Panyala, J. Hammond, J. Autschbach, K. Bhaskaran-Nair, J. Brabec,
    K. Lopata, S. A. Fischer, S. Krishnamoorthy, M. Jacquelin, W. Ma, M. Klemm,
       O. Villa, Y. Chen, V. Anisimov, F. Aquino, S. Hirata, M. T. Hackler,
           Eric Hermes, L. Jensen, J. E. Moore, J. C. Becca, V. Konjkov,
            D. Mejia-Rodriguez, T. Risthaus, M. Malagoli, A. Marenich,
   A. Otero-de-la-Roza, J. Mullin, P. Nichols, R. Peverati, J. Pittner, Y. Zhao,
        P.-D. Fan, A. Fonari, M. J. Williamson, R. J. Harrison, J. R. Rehr,
      M. Dupuis, D. Silverstein, D. M. A. Smith, J. Nieplocha, V. Tipparaju,
      M. Krishnan, B. E. Van Kuiken, A. Vazquez-Mayagoitia, M. Swart, Q. Wu,
   T. Van Voorhis, A. A. Auer, M. Nooijen, L. D. Crosby, E. Brown, G. Cisneros,
     G. I. Fann, H. Fruchtl, J. Garza, K. Hirao, R. A. Kendall, J. A. Nichols,
       K. Tsemekhman, K. Wolinski, J. Anchell, D. E. Bernholdt, P. Borowski,
       T. Clark, D. Clerc, H. Dachsel, M. J. O. Deegan, K. Dyall, D. Elwood,
      E. Glendening, M. Gutowski, A. C. Hess, J. Jaffe, B. G. Johnson, J. Ju,
        R. Kobayashi, R. Kutteh, Z. Lin, R. Littlefield, X. Long, B. Meng,
      T. Nakajima, S. Niu, L. Pollack, M. Rosing, K. Glaesemann, G. Sandrone,
      M. Stave, H. Taylor, G. Thomas, J. H. van Lenthe, A. T. Wong, Z. Zhang.

 Total times  cpu:        2.3s     wall:        2.6s
