 
             Northwest Computational Chemistry Package (NWChem) 7.0.0
             --------------------------------------------------------
 
 
                    Environmental Molecular Sciences Laboratory
                       Pacific Northwest National Laboratory
                                Richland, WA 99352
 
                              Copyright (c) 1994-2020
                       Pacific Northwest National Laboratory
                            Battelle Memorial Institute
 
             NWChem is an open-source computational chemistry package
                        distributed under the terms of the
                      Educational Community License (ECL) 2.0
             A copy of the license is included with this distribution
                              in the LICENSE.TXT file
 
                                  ACKNOWLEDGMENT
                                  --------------

            This software and its documentation were developed at the
            EMSL at Pacific Northwest National Laboratory, a multiprogram
            national laboratory, operated for the U.S. Department of Energy
            by Battelle under Contract Number DE-AC05-76RL01830. Support
            for this work was provided by the Department of Energy Office
            of Biological and Environmental Research, Office of Basic
            Energy Sciences, and the Office of Advanced Scientific Computing.


                                NWChem Input Module
                                -------------------
 
 
 Summary of "ao basis" -> "" (spherical)
 ------------------------------------------------------------------------------
       Tag                 Description            Shells   Functions and Types
 ---------------- ------------------------------  ------  ---------------------
 *                        ahlrichs_vtz                on all atoms 



 Scaling coordinates for geometry "geometry" by  1.889725989
 (inverse scale =  0.529177249)

 
 
                             Geometry "geometry" -> ""
                             -------------------------
 
 Output coordinates in angstroms (scale by  1.889725989 to convert to a.u.)
 
  No.       Tag          Charge          X              Y              Z
 ---- ---------------- ---------- -------------- -------------- --------------
    1 C                    6.0000    -0.58840700     0.68908573    -0.28219464
    2 C                    6.0000     0.23448237    -0.17826608    -0.90215080
    3 H                    1.0000    -1.15509039     1.38648161    -0.91000124
    4 C                    6.0000    -0.83301387     0.82390645     1.19649085
    5 H                    1.0000     0.28660177    -0.13315885    -1.99617214
    6 C                    6.0000     1.11055643    -1.22446609    -0.26774312
    7 H                    1.0000    -0.24823983     0.11011743     1.79122587
    8 H                    1.0000    -1.89805859     0.66613611     1.43556382
    9 H                    1.0000    -0.57998161     1.83862330     1.54675577
   10 H                    1.0000     0.85183963    -2.23122935    -0.63631517
   11 H                    1.0000     1.03088578    -1.23926352     0.82706518
   12 H                    1.0000     2.17033559    -1.05926679    -0.52453570
 
      Atomic Mass 
      ----------- 
 
      C                 12.000000
      H                  1.007825
 

 Effective nuclear repulsion energy (a.u.)     116.8912401626

            Nuclear Dipole moment (a.u.) 
            ----------------------------
        X                 Y               Z
 ---------------- ---------------- ----------------
     0.0000000000    -0.0000000000     0.0000000000
 
 
            XYZ format geometry
            -------------------
    12
 geometry
 C                    -0.58840700     0.68908573    -0.28219464
 C                     0.23448237    -0.17826608    -0.90215080
 H                    -1.15509039     1.38648161    -0.91000124
 C                    -0.83301387     0.82390645     1.19649085
 H                     0.28660177    -0.13315885    -1.99617214
 C                     1.11055643    -1.22446609    -0.26774312
 H                    -0.24823983     0.11011743     1.79122587
 H                    -1.89805859     0.66613611     1.43556382
 H                    -0.57998161     1.83862330     1.54675577
 H                     0.85183963    -2.23122935    -0.63631517
 H                     1.03088578    -1.23926352     0.82706518
 H                     2.17033559    -1.05926679    -0.52453570
 
 ==============================================================================
                                internuclear distances
 ------------------------------------------------------------------------------
       center one      |      center two      | atomic units |  angstroms
 ------------------------------------------------------------------------------
    2 C                |   1 C                |     2.54503  |     1.34677
    3 H                |   1 C                |     2.07150  |     1.09619
    4 C                |   1 C                |     2.84372  |     1.50483
    5 H                |   2 C                |     2.07150  |     1.09619
    6 C                |   2 C                |     2.84372  |     1.50483
    7 H                |   4 C                |     2.07454  |     1.09780
    8 H                |   4 C                |     2.08416  |     1.10289
    9 H                |   4 C                |     2.08416  |     1.10289
   10 H                |   6 C                |     2.08415  |     1.10288
   11 H                |   6 C                |     2.07455  |     1.09780
   12 H                |   6 C                |     2.08416  |     1.10289
 ------------------------------------------------------------------------------
                         number of included internuclear distances:         11
 ==============================================================================



 ==============================================================================
                                 internuclear angles
 ------------------------------------------------------------------------------
        center 1       |       center 2       |       center 3       |  degrees
 ------------------------------------------------------------------------------
    2 C                |   1 C                |   3 H                |   117.51
    2 C                |   1 C                |   4 C                |   127.54
    3 H                |   1 C                |   4 C                |   114.94
    1 C                |   2 C                |   5 H                |   117.51
    1 C                |   2 C                |   6 C                |   127.55
    5 H                |   2 C                |   6 C                |   114.94
    1 C                |   4 C                |   7 H                |   112.80
    1 C                |   4 C                |   8 H                |   110.93
    1 C                |   4 C                |   9 H                |   110.93
    7 H                |   4 C                |   8 H                |   107.70
    7 H                |   4 C                |   9 H                |   107.70
    8 H                |   4 C                |   9 H                |   106.52
    2 C                |   6 C                |  10 H                |   110.93
    2 C                |   6 C                |  11 H                |   112.80
    2 C                |   6 C                |  12 H                |   110.92
   10 H                |   6 C                |  11 H                |   107.69
   10 H                |   6 C                |  12 H                |   106.52
   11 H                |   6 C                |  12 H                |   107.70
 ------------------------------------------------------------------------------
                            number of included internuclear angles:         18
 ==============================================================================



                              Aldehyde and Ketone set
                              -----------------------
 
                                 NWChem DFT Module
                                 -----------------
 
 
                              Aldehyde and Ketone set
 
 
                      Basis "ao basis" -> "ao basis" (spherical)
                      -----
  C (Carbon)
  ----------
            Exponent  Coefficients 
       -------------- ---------------------------------------------------------
  1 S  8.50603840E+03  0.000534
  1 S  1.27573290E+03  0.004125
  1 S  2.90311870E+02  0.021171
  1 S  8.20562000E+01  0.082418
  1 S  2.64796410E+01  0.240129
 
  2 S  9.24145850E+00  1.000000
 
  3 S  3.36435300E+00  1.000000
 
  4 S  8.71741640E-01  1.000000
 
  5 S  3.63523520E-01  1.000000
 
  6 S  1.28731350E-01  1.000000
 
  7 P  3.47094960E+01  0.005330
  7 P  7.95908830E+00  0.035866
  7 P  2.37869720E+00  0.142003
  7 P  8.15400650E-01  0.342031
 
  8 P  2.89537850E-01  1.000000
 
  9 P  1.00847540E-01  1.000000
 
  H (Hydrogen)
  ------------
            Exponent  Coefficients 
       -------------- ---------------------------------------------------------
  1 S  3.40613410E+01  0.006025
  1 S  5.12357460E+00  0.045021
  1 S  1.16466260E+00  0.201897
 
  2 S  3.27230410E-01  1.000000
 
  3 S  1.03072410E-01  1.000000
 


 Summary of "ao basis" -> "ao basis" (spherical)
 ------------------------------------------------------------------------------
       Tag                 Description            Shells   Functions and Types
 ---------------- ------------------------------  ------  ---------------------
 C                        ahlrichs vtz               9       15   6s3p
 H                        ahlrichs vtz               3        3   3s




 Summary of "ao basis" -> "ao basis" (spherical)
 ------------------------------------------------------------------------------
       Tag                 Description            Shells   Functions and Types
 ---------------- ------------------------------  ------  ---------------------
 C                        ahlrichs vtz               9       15   6s3p
 H                        ahlrichs vtz               3        3   3s


  Caching 1-el integrals 
 
            General Information
            -------------------
          SCF calculation type: DFT
          Wavefunction type:  closed shell.
          No. of atoms     :    12
          No. of electrons :    32
           Alpha electrons :    16
            Beta electrons :    16
          Charge           :     0
          Spin multiplicity:     1
          Use of symmetry is: off; symmetry adaption is: off
          Maximum number of iterations: 999
          This is a Direct SCF calculation.
          AO basis - number of functions:    84
                     number of shells:    60
          Convergence on energy requested:  1.00D-08
          Convergence on density requested:  1.00D-07
          Convergence on gradient requested:  1.00D-06
 
              XC Information
              --------------
                        PBE96 Method XC Functional
          PerdewBurkeErnzerhof Exchange Functional  1.000          
            Perdew 1991 LDA Correlation Functional  1.000 local    
           PerdewBurkeErnz. Correlation Functional  1.000 non-local
 
             Grid Information
             ----------------
          Grid used for XC integration:  fine      
          Radial quadrature: Mura-Knowles        
          Angular quadrature: Lebedev. 
          Tag              B.-S. Rad. Rad. Pts. Rad. Cut. Ang. Pts.
          ---              ---------- --------- --------- ---------
          C                   0.70       70          11.0       590
          H                   0.35       60          13.0       590
          Grid pruning is: on 
          Number of quadrature shells:   760
          Spatial weights used:  Erf1
 
          Convergence Information
          -----------------------
          Convergence aids based upon iterative change in 
          total energy or number of iterations. 
          Levelshifting, if invoked, occurs when the 
          HOMO/LUMO gap drops below (HL_TOL):  1.00D-02
          DIIS, if invoked, will attempt to extrapolate 
          using up to (NFOCK): 10 stored Fock matrices.

                    Damping( 0%)  Levelshifting(0.5)       DIIS
                  --------------- ------------------- ---------------
          dE  on:    start            ASAP                start   
          dE off:    2 iters        999 iters           999 iters 

 
      Screening Tolerance Information
      -------------------------------
          Density screening/tol_rho:  1.00D-12
          AO Gaussian exp screening on grid/accAOfunc:  18
          CD Gaussian exp screening on grid/accCDfunc:  20
          XC Gaussian exp screening on grid/accXCfunc:  20
          Schwarz screening/accCoul:  1.00D-12

      Dispersion Parameters
      ---------------------

           DFT-D3BJ Model   
          s6 scale factor  :        1.000000000000
          s8 scale factor  :        0.787500000000
          a1 parameter     :        0.428900000000
          a2 parameter     :        4.440700000000
              vdW contrib  :       -0.007625582458


 Forcing the number of linearly dependent vectors to be  0
 
      Superposition of Atomic Density Guess
      -------------------------------------
 
 Sum of atomic energies:        -154.68305411
   Time after variat. SCF:      0.2
   Time prior to 1st pass:      0.2

 Grid_pts file          = ./17_cisMeCHCHMe.gridpts.00
 Record size in doubles =  12289        No. of grid_pts per rec  =   3070
 Max. records in memory =     12        Max. recs in file   =  67550051

 Grid integrated density:      31.999970016071
 Requested integration accuracy:   0.10E-06

           Memory utilization after 1st SCF pass: 
           Heap Space remaining (MW):        0.00                 218
          Stack Space remaining (MW):      288.36           288357604

   convergence    iter        energy       DeltaE   RMS-Dens  Diis-err    time
 ---------------- ----- ----------------- --------- --------- ---------  ------
 d= 0,ls=0.0,diis     1   -157.3905148580 -2.74D+02  3.12D-02  4.45D+01     0.4
 Grid integrated density:      31.999992274710
 Requested integration accuracy:   0.10E-06
 d= 0,ls=0.0,diis     2   -156.8173739448  5.73D-01  2.03D-02  1.43D+00     0.6
 Grid integrated density:      31.999988081193
 Requested integration accuracy:   0.10E-06
 d= 0,ls=0.0,diis     3   -156.6458317480  1.72D-01  1.38D-02  2.55D+00     0.8
 Grid integrated density:      31.999989233818
 Requested integration accuracy:   0.10E-06
 d= 0,ls=0.0,diis     4   -157.0132322135 -3.67D-01  1.22D-03  4.47D-03     1.0
 Grid integrated density:      31.999989682583
 Requested integration accuracy:   0.10E-06
 d= 0,ls=0.0,diis     5   -157.0139054934 -6.73D-04  3.11D-04  9.39D-04     1.2
 Grid integrated density:      31.999989574675
 Requested integration accuracy:   0.10E-06
 d= 0,ls=0.0,diis     6   -157.0140249465 -1.19D-04  9.27D-05  1.13D-04     1.4
 Grid integrated density:      31.999989566375
 Requested integration accuracy:   0.10E-06
 d= 0,ls=0.0,diis     7   -157.0140385352 -1.36D-05  2.03D-05  1.75D-06     1.6
 Grid integrated density:      31.999989569756
 Requested integration accuracy:   0.10E-06
 d= 0,ls=0.0,diis     8   -157.0140388471 -3.12D-07  3.35D-06  4.87D-08     1.8
 Grid integrated density:      31.999989569737
 Requested integration accuracy:   0.10E-06
 d= 0,ls=0.0,diis     9   -157.0140388567 -9.58D-09  4.82D-07  9.34D-10     2.0
 Grid integrated density:      31.999989569734
 Requested integration accuracy:   0.10E-06
 d= 0,ls=0.0,diis    10   -157.0140388566  1.49D-10  2.87D-07  2.04D-09     2.2
 Grid integrated density:      31.999989569733
 Requested integration accuracy:   0.10E-06
 d= 0,ls=0.0,diis    11   -157.0140388569 -2.84D-10  2.57D-08  1.91D-12     2.3


         Total DFT energy =     -157.014038856853
      One electron energy =     -440.992690359518
           Coulomb energy =      191.476153717912
          Exchange energy =      -23.362859184181
       Correlation energy =       -1.018257611224
 Nuclear repulsion energy =      116.891240162616

    Dispersion correction =       -0.007625582458

 Numeric. integr. density =       31.999989569733

     Total iterative time =      2.1s


 
                       DFT Final Molecular Orbital Analysis
                       ------------------------------------
 
 Vector    1  Occ=2.000000D+00  E=-9.888876D+00
              MO Center= -1.8D-01,  2.6D-01, -5.9D-01, r^2= 4.8D-01
   Bfn.  Coefficient  Atom+Function         Bfn.  Coefficient  Atom+Function  
  ----- ------------  ---------------      ----- ------------  ---------------
     2      0.299820   1 C  s                17      0.299778   2 C  s         
     3      0.254389   1 C  s                18      0.254354   2 C  s         
     1      0.218328   1 C  s                16      0.218297   2 C  s         
     4      0.040187   1 C  s                19      0.040181   2 C  s         
 
 Vector    2  Occ=2.000000D+00  E=-9.888266D+00
              MO Center= -1.8D-01,  2.6D-01, -5.9D-01, r^2= 4.8D-01
   Bfn.  Coefficient  Atom+Function         Bfn.  Coefficient  Atom+Function  
  ----- ------------  ---------------      ----- ------------  ---------------
     2      0.299993   1 C  s                17     -0.300035   2 C  s         
     3      0.253874   1 C  s                18     -0.253909   2 C  s         
     1      0.218292   1 C  s                16     -0.218323   2 C  s         
     4      0.041518   1 C  s                19     -0.041524   2 C  s         
 
 Vector    3  Occ=2.000000D+00  E=-9.884994D+00
              MO Center=  7.3D-01, -8.3D-01,  1.6D-02, r^2= 1.6D+00
   Bfn.  Coefficient  Atom+Function         Bfn.  Coefficient  Atom+Function  
  ----- ------------  ---------------      ----- ------------  ---------------
    53      0.380860   6 C  s                54      0.322607   6 C  s         
    52      0.277233   6 C  s                35     -0.186728   4 C  s         
    36     -0.158111   4 C  s                34     -0.135909   4 C  s         
    55      0.051897   6 C  s                37     -0.025641   4 C  s         
 
 Vector    4  Occ=2.000000D+00  E=-9.884992D+00
              MO Center= -4.6D-01,  4.3D-01,  9.1D-01, r^2= 1.6D+00
   Bfn.  Coefficient  Atom+Function         Bfn.  Coefficient  Atom+Function  
  ----- ------------  ---------------      ----- ------------  ---------------
    35      0.380857   4 C  s                36      0.322679   4 C  s         
    34      0.277246   4 C  s                53      0.186722   6 C  s         
    54      0.158256   6 C  s                52      0.135937   6 C  s         
    37      0.051642   4 C  s                55      0.025122   6 C  s         
 
 Vector    5  Occ=2.000000D+00  E=-7.233981D-01
              MO Center= -6.8D-02,  9.8D-02, -2.3D-01, r^2= 2.0D+00
   Bfn.  Coefficient  Atom+Function         Bfn.  Coefficient  Atom+Function  
  ----- ------------  ---------------      ----- ------------  ---------------
     5      0.308023   1 C  s                20      0.308025   2 C  s         
    38      0.210123   4 C  s                56      0.210128   6 C  s         
     3     -0.093946   1 C  s                18     -0.093947   2 C  s         
    39      0.087060   4 C  s                57      0.087060   6 C  s         
     2     -0.073847   1 C  s                17     -0.073848   2 C  s         
 
 Vector    6  Occ=2.000000D+00  E=-6.553204D-01
              MO Center=  7.5D-02, -1.1D-01,  2.5D-01, r^2= 3.5D+00
   Bfn.  Coefficient  Atom+Function         Bfn.  Coefficient  Atom+Function  
  ----- ------------  ---------------      ----- ------------  ---------------
    38      0.342115   4 C  s                56     -0.342123   6 C  s         
     5      0.159812   1 C  s                20     -0.159798   2 C  s         
    39      0.112677   4 C  s                57     -0.112677   6 C  s         
    36     -0.091460   4 C  s                54      0.091462   6 C  s         
    35     -0.074095   4 C  s                53      0.074097   6 C  s         
 
 Vector    7  Occ=2.000000D+00  E=-5.927660D-01
              MO Center=  9.4D-03, -1.4D-02,  3.2D-02, r^2= 3.5D+00
   Bfn.  Coefficient  Atom+Function         Bfn.  Coefficient  Atom+Function  
  ----- ------------  ---------------      ----- ------------  ---------------
    38      0.279132   4 C  s                56      0.279115   6 C  s         
     5     -0.209449   1 C  s                20     -0.209451   2 C  s         
     9      0.114116   1 C  pz               23     -0.097828   2 C  py        
    22      0.085770   2 C  px               39      0.083589   4 C  s         
    57      0.083585   6 C  s                36     -0.074679   4 C  s         
 
 Vector    8  Occ=2.000000D+00  E=-4.717676D-01
              MO Center= -8.1D-02,  1.2D-01, -2.7D-01, r^2= 3.6D+00
   Bfn.  Coefficient  Atom+Function         Bfn.  Coefficient  Atom+Function  
  ----- ------------  ---------------      ----- ------------  ---------------
     5      0.276593   1 C  s                20     -0.276594   2 C  s         
    42     -0.133861   4 C  pz               38     -0.129934   4 C  s         
    56      0.129944   6 C  s                32      0.111201   3 H  s         
    50     -0.111202   5 H  s                45     -0.105122   4 C  pz        
    31      0.095242   3 H  s                49     -0.095244   5 H  s         
 
 Vector    9  Occ=2.000000D+00  E=-4.296080D-01
              MO Center= -8.0D-02,  1.1D-01, -2.7D-01, r^2= 3.1D+00
   Bfn.  Coefficient  Atom+Function         Bfn.  Coefficient  Atom+Function  
  ----- ------------  ---------------      ----- ------------  ---------------
    24      0.201889   2 C  pz               27      0.154848   2 C  pz        
     8     -0.152591   1 C  py                7      0.129970   1 C  px        
    60      0.115034   6 C  pz               11     -0.110991   1 C  py        
    41     -0.108045   4 C  py               63      0.100421   6 C  pz        
    32     -0.096813   3 H  s                40      0.096495   4 C  px        
 
 Vector   10  Occ=2.000000D+00  E=-3.717211D-01
              MO Center=  9.0D-02, -1.3D-01,  3.0D-01, r^2= 4.3D+00
   Bfn.  Coefficient  Atom+Function         Bfn.  Coefficient  Atom+Function  
  ----- ------------  ---------------      ----- ------------  ---------------
    40      0.160652   4 C  px               58      0.160669   6 C  px        
    41      0.142778   4 C  py               59      0.142833   6 C  py        
    43      0.139532   4 C  px               61      0.139549   6 C  px        
    44      0.124005   4 C  py               62      0.124048   6 C  py        
    71     -0.113536   8 H  s                74      0.113465   9 H  s         
 
 Vector   11  Occ=2.000000D+00  E=-3.710929D-01
              MO Center=  4.5D-02, -6.4D-02,  1.5D-01, r^2= 3.0D+00
   Bfn.  Coefficient  Atom+Function         Bfn.  Coefficient  Atom+Function  
  ----- ------------  ---------------      ----- ------------  ---------------
     9      0.216968   1 C  pz               42     -0.210640   4 C  pz        
    12      0.162006   1 C  pz               23     -0.162234   2 C  py        
    45     -0.159440   4 C  pz               60     -0.149698   6 C  pz        
    22      0.137794   2 C  px               59      0.120316   6 C  py        
    26     -0.117341   2 C  py               63     -0.116465   6 C  pz        
 
 Vector   12  Occ=2.000000D+00  E=-3.565910D-01
              MO Center=  1.3D-01, -1.8D-01,  4.2D-01, r^2= 4.7D+00
   Bfn.  Coefficient  Atom+Function         Bfn.  Coefficient  Atom+Function  
  ----- ------------  ---------------      ----- ------------  ---------------
    40      0.172466   4 C  px               58     -0.172460   6 C  px        
    41      0.153244   4 C  py               59     -0.153179   6 C  py        
    43      0.148503   4 C  px               61     -0.148495   6 C  px        
    71     -0.132957   8 H  s                74      0.132853   9 H  s         
    77      0.132841  10 H  s                83     -0.132923  12 H  s         
 
 Vector   13  Occ=2.000000D+00  E=-3.408306D-01
              MO Center=  1.6D-01, -2.3D-01,  5.4D-01, r^2= 3.9D+00
   Bfn.  Coefficient  Atom+Function         Bfn.  Coefficient  Atom+Function  
  ----- ------------  ---------------      ----- ------------  ---------------
    41      0.176659   4 C  py               60      0.170932   6 C  pz        
    40     -0.160532   4 C  px               44      0.150331   4 C  py        
    63      0.143610   6 C  pz               43     -0.136906   4 C  px        
    58     -0.121955   6 C  px               59      0.121012   6 C  py        
    68     -0.120629   7 H  s                80      0.120623  11 H  s         
 
 Vector   14  Occ=2.000000D+00  E=-3.191183D-01
              MO Center=  5.9D-03, -8.5D-03,  2.0D-02, r^2= 3.7D+00
   Bfn.  Coefficient  Atom+Function         Bfn.  Coefficient  Atom+Function  
  ----- ------------  ---------------      ----- ------------  ---------------
     8     -0.160198   1 C  py               24      0.150327   2 C  pz        
     7      0.146291   1 C  px               68     -0.127270   7 H  s         
    80     -0.127256  11 H  s                41      0.121894   4 C  py        
    22     -0.115331   2 C  px               23      0.115545   2 C  py        
    60     -0.115463   6 C  pz               32     -0.114864   3 H  s         
 
 Vector   15  Occ=2.000000D+00  E=-2.909969D-01
              MO Center= -8.9D-02,  1.3D-01, -3.0D-01, r^2= 3.4D+00
   Bfn.  Coefficient  Atom+Function         Bfn.  Coefficient  Atom+Function  
  ----- ------------  ---------------      ----- ------------  ---------------
    42     -0.190045   4 C  pz                9      0.182434   1 C  pz        
    24     -0.170670   2 C  pz               32     -0.168385   3 H  s         
    45     -0.168242   4 C  pz               50      0.168396   5 H  s         
    60      0.150694   6 C  pz               12      0.146778   1 C  pz        
    27     -0.141033   2 C  pz               63      0.133713   6 C  pz        
 
 Vector   16  Occ=2.000000D+00  E=-2.108239D-01
              MO Center= -1.3D-01,  1.8D-01, -4.2D-01, r^2= 2.5D+00
   Bfn.  Coefficient  Atom+Function         Bfn.  Coefficient  Atom+Function  
  ----- ------------  ---------------      ----- ------------  ---------------
     7      0.207831   1 C  px               22      0.207835   2 C  px        
    10      0.196912   1 C  px               25      0.196915   2 C  px        
     8      0.184656   1 C  py               23      0.184654   2 C  py        
    11      0.174948   1 C  py               26      0.174946   2 C  py        
    13      0.125644   1 C  px               28      0.125654   2 C  px        
 
 Vector   17  Occ=0.000000D+00  E=-8.337023D-03
              MO Center= -1.5D-01,  2.1D-01, -4.9D-01, r^2= 2.9D+00
   Bfn.  Coefficient  Atom+Function         Bfn.  Coefficient  Atom+Function  
  ----- ------------  ---------------      ----- ------------  ---------------
    13      0.478000   1 C  px               28     -0.478090   2 C  px        
    14      0.424909   1 C  py               29     -0.424802   2 C  py        
    10      0.253641   1 C  px               25     -0.253640   2 C  px        
     7      0.236188   1 C  px               22     -0.236189   2 C  px        
    11      0.225364   1 C  py               26     -0.225372   2 C  py        
 
 Vector   18  Occ=0.000000D+00  E= 2.551736D-02
              MO Center=  1.1D-01, -1.5D-01,  3.5D-01, r^2= 8.9D+00
   Bfn.  Coefficient  Atom+Function         Bfn.  Coefficient  Atom+Function  
  ----- ------------  ---------------      ----- ------------  ---------------
    39      1.663500   4 C  s                57      1.663562   6 C  s         
    72     -0.659381   8 H  s                75     -0.659249   9 H  s         
    78     -0.659306  10 H  s                84     -0.659419  12 H  s         
    33     -0.585808   3 H  s                51     -0.585880   5 H  s         
    69     -0.566764   7 H  s                81     -0.566827  11 H  s         
 
 Vector   19  Occ=0.000000D+00  E= 4.891639D-02
              MO Center= -1.4D-01,  2.1D-01, -4.8D-01, r^2= 7.5D+00
   Bfn.  Coefficient  Atom+Function         Bfn.  Coefficient  Atom+Function  
  ----- ------------  ---------------      ----- ------------  ---------------
    33     -1.281139   3 H  s                51     -1.281166   5 H  s         
     6      1.185891   1 C  s                21      1.185867   2 C  s         
    69      0.833273   7 H  s                81      0.833323  11 H  s         
    39     -0.695326   4 C  s                57     -0.695230   6 C  s         
    30     -0.516553   2 C  pz               14      0.427866   1 C  py        
 
 Vector   20  Occ=0.000000D+00  E= 6.019910D-02
              MO Center=  1.0D-01, -1.5D-01,  3.4D-01, r^2= 1.1D+01
   Bfn.  Coefficient  Atom+Function         Bfn.  Coefficient  Atom+Function  
  ----- ------------  ---------------      ----- ------------  ---------------
    39      2.072383   4 C  s                57     -2.072317   6 C  s         
    72     -0.914765   8 H  s                75     -0.915233   9 H  s         
    78      0.915103  10 H  s                84      0.914783  12 H  s         
    30      0.782069   2 C  pz               33     -0.768949   3 H  s         
    51      0.768815   5 H  s                15     -0.743662   1 C  pz        
 
 Vector   21  Occ=0.000000D+00  E= 9.276335D-02
              MO Center=  8.5D-02, -1.2D-01,  2.9D-01, r^2= 9.5D+00
   Bfn.  Coefficient  Atom+Function         Bfn.  Coefficient  Atom+Function  
  ----- ------------  ---------------      ----- ------------  ---------------
    72      1.532818   8 H  s                75     -1.531332   9 H  s         
    78      1.531680  10 H  s                84     -1.532765  12 H  s         
    46      0.940836   4 C  px               64      0.940425   6 C  px        
    47      0.836191   4 C  py               65      0.836972   6 C  py        
    13     -0.265071   1 C  px               28     -0.263311   2 C  px        
 
 Vector   22  Occ=0.000000D+00  E= 9.609232D-02
              MO Center= -2.9D-01,  4.2D-01, -9.8D-01, r^2= 8.2D+00
   Bfn.  Coefficient  Atom+Function         Bfn.  Coefficient  Atom+Function  
  ----- ------------  ---------------      ----- ------------  ---------------
    33      2.105389   3 H  s                51     -2.104554   5 H  s         
     6     -1.878626   1 C  s                21      1.878046   2 C  s         
    30     -1.310767   2 C  pz               15      0.883861   1 C  pz        
    14     -0.772776   1 C  py               13      0.611034   1 C  px        
    66      0.613818   6 C  pz               48     -0.556839   4 C  pz        
 
 Vector   23  Occ=0.000000D+00  E= 9.860559D-02
              MO Center=  9.1D-02, -1.3D-01,  3.0D-01, r^2= 8.5D+00
   Bfn.  Coefficient  Atom+Function         Bfn.  Coefficient  Atom+Function  
  ----- ------------  ---------------      ----- ------------  ---------------
    69      1.341802   7 H  s                81      1.341997  11 H  s         
    66     -1.135491   6 C  pz               72     -1.074126   8 H  s         
    84     -1.074653  12 H  s                33      1.067531   3 H  s         
    51      1.069111   5 H  s                75     -1.070017   9 H  s         
    78     -1.069968  10 H  s                47      1.000593   4 C  py        
 
 Vector   24  Occ=0.000000D+00  E= 1.057366D-01
              MO Center=  6.4D-02, -9.3D-02,  2.2D-01, r^2= 1.0D+01
   Bfn.  Coefficient  Atom+Function         Bfn.  Coefficient  Atom+Function  
  ----- ------------  ---------------      ----- ------------  ---------------
    72      1.579908   8 H  s                75     -1.582828   9 H  s         
    78     -1.582595  10 H  s                84      1.579843  12 H  s         
    46      0.922036   4 C  px               64     -0.923081   6 C  px        
    47      0.822695   4 C  py               65     -0.821067   6 C  py        
    13     -0.456722   1 C  px               28      0.457153   2 C  px        
 
 Vector   25  Occ=0.000000D+00  E= 1.320137D-01
              MO Center=  1.8D-01, -2.6D-01,  6.1D-01, r^2= 7.1D+00
   Bfn.  Coefficient  Atom+Function         Bfn.  Coefficient  Atom+Function  
  ----- ------------  ---------------      ----- ------------  ---------------
    48      1.641370   4 C  pz                6      1.507723   1 C  s         
    21      1.508001   2 C  s                65     -1.251670   6 C  py        
    15      1.091932   1 C  pz               64      1.067865   6 C  px        
    39     -0.977968   4 C  s                57     -0.978685   6 C  s         
    33      0.758820   3 H  s                51      0.759350   5 H  s         
 
 Vector   26  Occ=0.000000D+00  E= 1.460299D-01
              MO Center=  2.9D-01, -4.2D-01,  9.8D-01, r^2= 7.4D+00
   Bfn.  Coefficient  Atom+Function         Bfn.  Coefficient  Atom+Function  
  ----- ------------  ---------------      ----- ------------  ---------------
    15      2.274216   1 C  pz               30     -2.201854   2 C  pz        
    39     -1.945700   4 C  s                57      1.945215   6 C  s         
    69      1.940747   7 H  s                81     -1.940814  11 H  s         
    33      1.485428   3 H  s                51     -1.485043   5 H  s         
    47      1.307458   4 C  py               65      1.271144   6 C  py        
 
 Vector   27  Occ=0.000000D+00  E= 1.742609D-01
              MO Center=  2.1D-01, -3.0D-01,  7.0D-01, r^2= 4.9D+00
   Bfn.  Coefficient  Atom+Function         Bfn.  Coefficient  Atom+Function  
  ----- ------------  ---------------      ----- ------------  ---------------
    46      1.010409   4 C  px               64      1.013979   6 C  px        
    47      0.894354   4 C  py               65      0.889415   6 C  py        
    72      0.420283   8 H  s                84     -0.420248  12 H  s         
    75     -0.414106   9 H  s                78      0.414164  10 H  s         
    71      0.310678   8 H  s                74     -0.310166   9 H  s         
 
 Vector   28  Occ=0.000000D+00  E= 1.889674D-01
              MO Center=  6.2D-03, -9.0D-03,  2.2D-02, r^2= 8.6D+00
   Bfn.  Coefficient  Atom+Function         Bfn.  Coefficient  Atom+Function  
  ----- ------------  ---------------      ----- ------------  ---------------
    30      3.371429   2 C  pz               33     -2.773252   3 H  s         
    51      2.773432   5 H  s                 6     -2.743140   1 C  s         
    21      2.743149   2 C  s                15     -2.197995   1 C  pz        
    14      2.021642   1 C  py               48     -1.901994   4 C  pz        
    13     -1.610355   1 C  px               69      1.423728   7 H  s         
 
 Vector   29  Occ=0.000000D+00  E= 1.984971D-01
              MO Center= -1.2D-01,  1.7D-01, -4.0D-01, r^2= 7.5D+00
   Bfn.  Coefficient  Atom+Function         Bfn.  Coefficient  Atom+Function  
  ----- ------------  ---------------      ----- ------------  ---------------
    66      1.129382   6 C  pz               15     -0.887021   1 C  pz        
    47     -0.789482   4 C  py               46      0.660167   4 C  px        
    39      0.584264   4 C  s                57      0.583805   6 C  s         
    29      0.550984   2 C  py               30     -0.536530   2 C  pz        
    48      0.502259   4 C  pz               28     -0.444226   2 C  px        
 
 Vector   30  Occ=0.000000D+00  E= 2.350940D-01
              MO Center=  1.3D-01, -1.9D-01,  4.3D-01, r^2= 9.3D+00
   Bfn.  Coefficient  Atom+Function         Bfn.  Coefficient  Atom+Function  
  ----- ------------  ---------------      ----- ------------  ---------------
    66      1.977309   6 C  pz                6      1.635085   1 C  s         
    21     -1.635111   2 C  s                47      1.550350   4 C  py        
    46     -1.332141   4 C  px               14     -1.285707   1 C  py        
    13      1.201310   1 C  px               29     -1.145540   2 C  py        
    28      1.103766   2 C  px               30     -1.031133   2 C  pz        
 
 Vector   31  Occ=0.000000D+00  E= 2.472276D-01
              MO Center= -1.9D-01,  2.7D-01, -6.3D-01, r^2= 5.6D+00
   Bfn.  Coefficient  Atom+Function         Bfn.  Coefficient  Atom+Function  
  ----- ------------  ---------------      ----- ------------  ---------------
    13      0.742362   1 C  px               28      0.743789   2 C  px        
    14      0.663912   1 C  py               29      0.662373   2 C  py        
    46     -0.586771   4 C  px               64     -0.588188   6 C  px        
    47     -0.522366   4 C  py               65     -0.520850   6 C  py        
    10     -0.374374   1 C  px               25     -0.374382   2 C  px        
 
 Vector   32  Occ=0.000000D+00  E= 2.508145D-01
              MO Center= -2.4D-02,  3.5D-02, -8.1D-02, r^2= 6.6D+00
   Bfn.  Coefficient  Atom+Function         Bfn.  Coefficient  Atom+Function  
  ----- ------------  ---------------      ----- ------------  ---------------
    66      1.329653   6 C  pz                6      1.269276   1 C  s         
    21      1.269061   2 C  s                47     -1.173878   4 C  py        
    46      1.037535   4 C  px               14      0.993098   1 C  py        
    13     -0.929450   1 C  px               29     -0.888840   2 C  py        
    28      0.855658   2 C  px               30     -0.794959   2 C  pz        
 
 Vector   33  Occ=0.000000D+00  E= 2.846480D-01
              MO Center=  1.7D-01, -2.5D-01,  5.7D-01, r^2= 7.0D+00
   Bfn.  Coefficient  Atom+Function         Bfn.  Coefficient  Atom+Function  
  ----- ------------  ---------------      ----- ------------  ---------------
    46      1.554648   4 C  px               64     -1.555390   6 C  px        
    13     -1.410122   1 C  px               28      1.412054   2 C  px        
    47      1.383162   4 C  py               65     -1.382149   6 C  py        
    14     -1.255497   1 C  py               29      1.253360   2 C  py        
    72      0.476789   8 H  s                75     -0.476615   9 H  s         
 
 Vector   34  Occ=0.000000D+00  E= 3.017618D-01
              MO Center= -1.3D-01,  1.9D-01, -4.4D-01, r^2= 4.4D+00
   Bfn.  Coefficient  Atom+Function         Bfn.  Coefficient  Atom+Function  
  ----- ------------  ---------------      ----- ------------  ---------------
    66      1.025015   6 C  pz               29     -0.799317   2 C  py        
    28      0.749478   2 C  px               14      0.709307   1 C  py        
    13     -0.686940   1 C  px               48      0.662352   4 C  pz        
    15      0.642356   1 C  pz               47     -0.615821   4 C  py        
    45     -0.523070   4 C  pz               46      0.493801   4 C  px        
 
 Vector   35  Occ=0.000000D+00  E= 3.200167D-01
              MO Center= -8.1D-02,  1.2D-01, -2.7D-01, r^2= 6.3D+00
   Bfn.  Coefficient  Atom+Function         Bfn.  Coefficient  Atom+Function  
  ----- ------------  ---------------      ----- ------------  ---------------
    29      4.056779   2 C  py               15      3.736214   1 C  pz        
    28     -3.715961   2 C  px               14      3.014446   1 C  py        
    13     -2.994655   1 C  px                6     -2.943719   1 C  s         
    21      2.944384   2 C  s                69     -2.643227   7 H  s         
    81      2.642568  11 H  s                48      2.224685   4 C  pz        
 
 Vector   36  Occ=0.000000D+00  E= 3.412224D-01
              MO Center= -1.1D-01,  1.6D-01, -3.7D-01, r^2= 5.5D+00
   Bfn.  Coefficient  Atom+Function         Bfn.  Coefficient  Atom+Function  
  ----- ------------  ---------------      ----- ------------  ---------------
    13      1.033886   1 C  px               28     -1.035275   2 C  px        
    14      0.938736   1 C  py               29     -0.936545   2 C  py        
    72      0.716661   8 H  s                84      0.716635  12 H  s         
    75     -0.706754   9 H  s                78     -0.706761  10 H  s         
    46      0.639797   4 C  px               64     -0.634090   6 C  px        
 
 Vector   37  Occ=0.000000D+00  E= 3.485588D-01
              MO Center= -1.1D-01,  1.6D-01, -3.6D-01, r^2= 7.1D+00
   Bfn.  Coefficient  Atom+Function         Bfn.  Coefficient  Atom+Function  
  ----- ------------  ---------------      ----- ------------  ---------------
    66      2.290750   6 C  pz                6      2.133517   1 C  s         
    21      2.132466   2 C  s                14      1.799307   1 C  py        
    30     -1.720139   2 C  pz               47     -1.670060   4 C  py        
    13     -1.651292   1 C  px               69     -1.500719   7 H  s         
    81     -1.501978  11 H  s                46      1.400865   4 C  px        
 
 Vector   38  Occ=0.000000D+00  E= 3.853633D-01
              MO Center= -5.6D-02,  8.1D-02, -1.9D-01, r^2= 6.5D+00
   Bfn.  Coefficient  Atom+Function         Bfn.  Coefficient  Atom+Function  
  ----- ------------  ---------------      ----- ------------  ---------------
    14     -3.967367   1 C  py                6      3.860021   1 C  s         
    21     -3.859816   2 C  s                13      3.654332   1 C  px        
    30     -3.532884   2 C  pz               69      3.316831   7 H  s         
    81     -3.317275  11 H  s                29     -3.099143   2 C  py        
    28      3.051668   2 C  px               33      2.861097   3 H  s         
 
 Vector   39  Occ=0.000000D+00  E= 3.973588D-01
              MO Center= -8.8D-02,  1.3D-01, -3.0D-01, r^2= 6.4D+00
   Bfn.  Coefficient  Atom+Function         Bfn.  Coefficient  Atom+Function  
  ----- ------------  ---------------      ----- ------------  ---------------
    33      2.857555   3 H  s                51      2.858390   5 H  s         
    30      2.700603   2 C  pz               15      2.105261   1 C  pz        
    14     -1.451826   1 C  py               48      1.312142   4 C  pz        
    13      1.112095   1 C  px               65     -0.984268   6 C  py        
    69     -0.953768   7 H  s                81     -0.952376  11 H  s         
 
 Vector   40  Occ=0.000000D+00  E= 4.236733D-01
              MO Center=  8.2D-02, -1.2D-01,  2.7D-01, r^2= 8.6D+00
   Bfn.  Coefficient  Atom+Function         Bfn.  Coefficient  Atom+Function  
  ----- ------------  ---------------      ----- ------------  ---------------
    15      2.909165   1 C  pz               29      2.396688   2 C  py        
    28     -2.083003   2 C  px               72     -1.733418   8 H  s         
    75     -1.737727   9 H  s                78      1.737535  10 H  s         
    84      1.733823  12 H  s                69      1.621921   7 H  s         
    81     -1.622149  11 H  s                65      1.225775   6 C  py        
 
 Vector   41  Occ=0.000000D+00  E= 4.295832D-01
              MO Center=  1.4D-01, -2.0D-01,  4.6D-01, r^2= 8.4D+00
   Bfn.  Coefficient  Atom+Function         Bfn.  Coefficient  Atom+Function  
  ----- ------------  ---------------      ----- ------------  ---------------
    72      1.767263   8 H  s                75     -1.760073   9 H  s         
    78      1.760036  10 H  s                84     -1.766933  12 H  s         
    46      0.987159   4 C  px               64      0.986930   6 C  px        
    47      0.871555   4 C  py               65      0.871563   6 C  py        
    71     -0.869055   8 H  s                74      0.866977   9 H  s         
 
 Vector   42  Occ=0.000000D+00  E= 4.375659D-01
              MO Center=  1.4D-01, -2.0D-01,  4.7D-01, r^2= 9.0D+00
   Bfn.  Coefficient  Atom+Function         Bfn.  Coefficient  Atom+Function  
  ----- ------------  ---------------      ----- ------------  ---------------
    72      2.299323   8 H  s                75     -2.309173   9 H  s         
    78     -2.309984  10 H  s                84      2.298768  12 H  s         
    46      1.716505   4 C  px               64     -1.718378   6 C  px        
    47      1.538559   4 C  py               65     -1.535796   6 C  py        
    71     -0.746444   8 H  s                74      0.747116   9 H  s         
 
 Vector   43  Occ=0.000000D+00  E= 4.408883D-01
              MO Center=  2.8D-01, -4.1D-01,  9.5D-01, r^2= 5.1D+00
   Bfn.  Coefficient  Atom+Function         Bfn.  Coefficient  Atom+Function  
  ----- ------------  ---------------      ----- ------------  ---------------
    69      1.727729   7 H  s                81      1.727641  11 H  s         
     6      1.546685   1 C  s                21      1.546438   2 C  s         
    39     -1.228949   4 C  s                57     -1.228159   6 C  s         
    68     -1.109185   7 H  s                80     -1.109239  11 H  s         
    47      0.850202   4 C  py               66     -0.841321   6 C  pz        
 
 Vector   44  Occ=0.000000D+00  E= 4.606591D-01
              MO Center= -3.2D-01,  4.7D-01, -1.1D+00, r^2= 5.9D+00
   Bfn.  Coefficient  Atom+Function         Bfn.  Coefficient  Atom+Function  
  ----- ------------  ---------------      ----- ------------  ---------------
    15      8.829784   1 C  pz               30     -8.160422   2 C  pz        
    33      5.601735   3 H  s                51     -5.600760   5 H  s         
    29      4.131252   2 C  py               39     -3.676989   4 C  s         
    57      3.678170   6 C  s                14     -3.196100   1 C  py        
    28     -2.982891   2 C  px               48      2.242986   4 C  pz        
 
 Vector   45  Occ=0.000000D+00  E= 4.675308D-01
              MO Center=  1.6D-02, -2.4D-02,  5.4D-02, r^2= 8.0D+00
   Bfn.  Coefficient  Atom+Function         Bfn.  Coefficient  Atom+Function  
  ----- ------------  ---------------      ----- ------------  ---------------
    38      1.268044   4 C  s                56      1.267874   6 C  s         
    39     -1.092742   4 C  s                57     -1.089746   6 C  s         
    72      1.047406   8 H  s                75      1.051715   9 H  s         
    78      1.052099  10 H  s                84      1.048364  12 H  s         
    33     -0.870472   3 H  s                51     -0.874823   5 H  s         
 
 Vector   46  Occ=0.000000D+00  E= 4.994774D-01
              MO Center=  2.3D-01, -3.4D-01,  7.9D-01, r^2= 6.5D+00
   Bfn.  Coefficient  Atom+Function         Bfn.  Coefficient  Atom+Function  
  ----- ------------  ---------------      ----- ------------  ---------------
    39      2.868122   4 C  s                57     -2.868534   6 C  s         
    69     -2.842686   7 H  s                81      2.843029  11 H  s         
    30      2.326001   2 C  pz               14      1.552585   1 C  py        
    38     -1.554834   4 C  s                56      1.555251   6 C  s         
    66     -1.477860   6 C  pz               13     -1.279773   1 C  px        
 
 Vector   47  Occ=0.000000D+00  E= 5.066322D-01
              MO Center= -8.7D-02,  1.3D-01, -2.9D-01, r^2= 6.2D+00
   Bfn.  Coefficient  Atom+Function         Bfn.  Coefficient  Atom+Function  
  ----- ------------  ---------------      ----- ------------  ---------------
     6      3.595508   1 C  s                21      3.595644   2 C  s         
     5     -2.010492   1 C  s                20     -2.010536   2 C  s         
    33     -1.272483   3 H  s                51     -1.272116   5 H  s         
    48      1.245763   4 C  pz               39      1.112596   4 C  s         
    57      1.111204   6 C  s                69     -1.041751   7 H  s         
 
 Vector   48  Occ=0.000000D+00  E= 5.343574D-01
              MO Center= -5.7D-02,  8.2D-02, -1.9D-01, r^2= 4.6D+00
   Bfn.  Coefficient  Atom+Function         Bfn.  Coefficient  Atom+Function  
  ----- ------------  ---------------      ----- ------------  ---------------
     6      3.797216   1 C  s                21     -3.797728   2 C  s         
    69     -2.310872   7 H  s                81      2.310887  11 H  s         
    48      1.991598   4 C  pz               66     -1.458096   6 C  pz        
    65      1.117613   6 C  py               15      1.020341   1 C  pz        
    29      0.994974   2 C  py               26     -0.940696   2 C  py        
 
 Vector   49  Occ=0.000000D+00  E= 6.240633D-01
              MO Center= -1.7D-01,  2.4D-01, -5.6D-01, r^2= 5.1D+00
   Bfn.  Coefficient  Atom+Function         Bfn.  Coefficient  Atom+Function  
  ----- ------------  ---------------      ----- ------------  ---------------
    15      7.846255   1 C  pz               30     -5.905731   2 C  pz        
    29      4.322070   2 C  py               28     -3.342450   2 C  px        
    33      2.710821   3 H  s                51     -2.710316   5 H  s         
    39     -2.427362   4 C  s                57      2.426150   6 C  s         
     6     -2.200495   1 C  s                21      2.200777   2 C  s         
 
 Vector   50  Occ=0.000000D+00  E= 6.702395D-01
              MO Center=  6.9D-02, -9.9D-02,  2.3D-01, r^2= 6.8D+00
   Bfn.  Coefficient  Atom+Function         Bfn.  Coefficient  Atom+Function  
  ----- ------------  ---------------      ----- ------------  ---------------
    39      7.166000   4 C  s                57      7.165515   6 C  s         
     6     -3.607660   1 C  s                21     -3.607874   2 C  s         
    15     -2.247668   1 C  pz               38     -1.860709   4 C  s         
    56     -1.860391   6 C  s                30     -1.718882   2 C  pz        
    48     -1.559945   4 C  pz               33     -1.371498   3 H  s         
 
 Vector   51  Occ=0.000000D+00  E= 7.091083D-01
              MO Center= -1.3D-01,  1.9D-01, -4.3D-01, r^2= 5.1D+00
   Bfn.  Coefficient  Atom+Function         Bfn.  Coefficient  Atom+Function  
  ----- ------------  ---------------      ----- ------------  ---------------
     6      9.163262   1 C  s                21     -9.162486   2 C  s         
    14     -4.776311   1 C  py               13      4.490708   1 C  px        
    29     -4.452229   2 C  py               28      4.265595   2 C  px        
    30     -3.674508   2 C  pz               15     -2.921614   1 C  pz        
    39      2.830582   4 C  s                57     -2.831661   6 C  s         
 
 Vector   52  Occ=0.000000D+00  E= 7.451850D-01
              MO Center=  1.3D-01, -1.9D-01,  4.4D-01, r^2= 7.3D+00
   Bfn.  Coefficient  Atom+Function         Bfn.  Coefficient  Atom+Function  
  ----- ------------  ---------------      ----- ------------  ---------------
    39     11.322466   4 C  s                57    -11.322785   6 C  s         
    15     -8.515433   1 C  pz                6     -8.334940   1 C  s         
    21      8.335170   2 C  s                30      8.280147   2 C  pz        
    29     -3.786166   2 C  py               33     -3.666048   3 H  s         
    51      3.666000   5 H  s                14      3.457085   1 C  py        
 
 Vector   53  Occ=0.000000D+00  E= 1.333946D+00
              MO Center=  3.8D-04, -5.1D-04,  1.2D-03, r^2= 4.0D+00
   Bfn.  Coefficient  Atom+Function         Bfn.  Coefficient  Atom+Function  
  ----- ------------  ---------------      ----- ------------  ---------------
    45      1.370048   4 C  pz               62     -1.062347   6 C  py        
    12      1.048843   1 C  pz               61      0.910880   6 C  px        
    26     -0.849777   2 C  py                5      0.829093   1 C  s         
    20      0.828912   2 C  s                48     -0.824506   4 C  pz        
    25      0.736007   2 C  px               42     -0.648126   4 C  pz        
 
 Vector   54  Occ=0.000000D+00  E= 1.380907D+00
              MO Center= -1.3D-01,  1.9D-01, -4.5D-01, r^2= 2.2D+00
   Bfn.  Coefficient  Atom+Function         Bfn.  Coefficient  Atom+Function  
  ----- ------------  ---------------      ----- ------------  ---------------
    10      0.729533   1 C  px               25      0.729711   2 C  px        
    11      0.648431   1 C  py               26      0.648203   2 C  py        
     7     -0.630539   1 C  px               22     -0.630593   2 C  px        
     8     -0.560345   1 C  py               23     -0.560273   2 C  py        
    43      0.329063   4 C  px               61      0.329297   6 C  px        
 
 Vector   55  Occ=0.000000D+00  E= 1.418531D+00
              MO Center= -1.1D-01,  1.6D-01, -3.6D-01, r^2= 2.9D+00
   Bfn.  Coefficient  Atom+Function         Bfn.  Coefficient  Atom+Function  
  ----- ------------  ---------------      ----- ------------  ---------------
    30      1.803918   2 C  pz               14      1.707604   1 C  py        
    13     -1.526952   1 C  px               33     -1.378546   3 H  s         
    26     -1.370665   2 C  py               51      1.376754   5 H  s         
    25      1.281645   2 C  px               11     -1.222990   1 C  py        
    10      1.179405   1 C  px               12     -1.098257   1 C  pz        
 
 Vector   56  Occ=0.000000D+00  E= 1.423641D+00
              MO Center=  2.3D-02, -3.3D-02,  7.5D-02, r^2= 3.7D+00
   Bfn.  Coefficient  Atom+Function         Bfn.  Coefficient  Atom+Function  
  ----- ------------  ---------------      ----- ------------  ---------------
    30      1.248880   2 C  pz               63     -1.207895   6 C  pz        
    33      1.131046   3 H  s                51      1.133366   5 H  s         
    44      0.875540   4 C  py               15      0.858175   1 C  pz        
    27     -0.814717   2 C  pz               66      0.746439   6 C  pz        
    43     -0.740867   4 C  px               14     -0.724165   1 C  py        
 
 Vector   57  Occ=0.000000D+00  E= 1.440214D+00
              MO Center= -7.9D-02,  1.1D-01, -2.6D-01, r^2= 3.0D+00
   Bfn.  Coefficient  Atom+Function         Bfn.  Coefficient  Atom+Function  
  ----- ------------  ---------------      ----- ------------  ---------------
    10      0.873333   1 C  px               25     -0.874182   2 C  px        
    11      0.778168   1 C  py               26     -0.776904   2 C  py        
    72     -0.715396   8 H  s                75      0.716174   9 H  s         
    78      0.716248  10 H  s                84     -0.715513  12 H  s         
    46     -0.670081   4 C  px               64      0.671261   6 C  px        
 
 Vector   58  Occ=0.000000D+00  E= 1.470455D+00
              MO Center=  9.8D-02, -1.4D-01,  3.3D-01, r^2= 3.6D+00
   Bfn.  Coefficient  Atom+Function         Bfn.  Coefficient  Atom+Function  
  ----- ------------  ---------------      ----- ------------  ---------------
    43      1.162889   4 C  px               61      1.166171   6 C  px        
    44      1.033798   4 C  py               62      1.029075   6 C  py        
    46     -0.843904   4 C  px               64     -0.845928   6 C  px        
    47     -0.752953   4 C  py               65     -0.749898   6 C  py        
    72     -0.720438   8 H  s                75      0.718953   9 H  s         
 
 Vector   59  Occ=0.000000D+00  E= 1.486640D+00
              MO Center=  1.3D-01, -1.9D-01,  4.3D-01, r^2= 4.7D+00
   Bfn.  Coefficient  Atom+Function         Bfn.  Coefficient  Atom+Function  
  ----- ------------  ---------------      ----- ------------  ---------------
    39     -2.882226   4 C  s                57      2.882215   6 C  s         
     6      2.687338   1 C  s                21     -2.687271   2 C  s         
    30     -2.652782   2 C  pz               45      2.077183   4 C  pz        
    14     -1.873823   1 C  py               69      1.720981   7 H  s         
    81     -1.720856  11 H  s                13      1.570445   1 C  px        
 
 Vector   60  Occ=0.000000D+00  E= 1.560137D+00
              MO Center= -5.2D-02,  7.5D-02, -1.7D-01, r^2= 3.5D+00
   Bfn.  Coefficient  Atom+Function         Bfn.  Coefficient  Atom+Function  
  ----- ------------  ---------------      ----- ------------  ---------------
    12      0.994490   1 C  pz               27      0.890461   2 C  pz        
    30     -0.878175   2 C  pz               63     -0.872645   6 C  pz        
    15     -0.805961   1 C  pz               45     -0.794253   4 C  pz        
    33     -0.767767   3 H  s                51     -0.767639   5 H  s         
    66      0.727340   6 C  pz                9     -0.714306   1 C  pz        
 
 Vector   61  Occ=0.000000D+00  E= 1.564960D+00
              MO Center=  4.1D-02, -5.9D-02,  1.4D-01, r^2= 4.1D+00
   Bfn.  Coefficient  Atom+Function         Bfn.  Coefficient  Atom+Function  
  ----- ------------  ---------------      ----- ------------  ---------------
    43      1.200402   4 C  px               46     -1.198531   4 C  px        
    61     -1.199110   6 C  px               64      1.197693   6 C  px        
    44      1.065206   4 C  py               47     -1.062976   4 C  py        
    62     -1.067059   6 C  py               65      1.064151   6 C  py        
    72     -1.022324   8 H  s                75      1.020688   9 H  s         
 
 Vector   62  Occ=0.000000D+00  E= 1.604689D+00
              MO Center=  4.5D-02, -6.4D-02,  1.5D-01, r^2= 4.5D+00
   Bfn.  Coefficient  Atom+Function         Bfn.  Coefficient  Atom+Function  
  ----- ------------  ---------------      ----- ------------  ---------------
    15      2.727326   1 C  pz               29      2.083891   2 C  py        
    28     -1.779748   2 C  px               66     -1.563288   6 C  pz        
    69     -1.561350   7 H  s                81      1.561303  11 H  s         
    63      1.477222   6 C  pz               39     -1.451292   4 C  s         
    57      1.451376   6 C  s                11     -1.315646   1 C  py        
 
 Vector   63  Occ=0.000000D+00  E= 1.727927D+00
              MO Center= -8.4D-02,  1.2D-01, -2.8D-01, r^2= 3.8D+00
   Bfn.  Coefficient  Atom+Function         Bfn.  Coefficient  Atom+Function  
  ----- ------------  ---------------      ----- ------------  ---------------
    30      1.218979   2 C  pz               14     -1.060799   1 C  py        
    11      1.020823   1 C  py               27     -1.023726   2 C  pz        
    33      0.950704   3 H  s                51      0.950883   5 H  s         
    66     -0.943956   6 C  pz               13      0.933127   1 C  px        
    47      0.935544   4 C  py               10     -0.921712   1 C  px        
 
 Vector   64  Occ=0.000000D+00  E= 1.805195D+00
              MO Center= -2.4D-01,  3.5D-01, -8.0D-01, r^2= 2.7D+00
   Bfn.  Coefficient  Atom+Function         Bfn.  Coefficient  Atom+Function  
  ----- ------------  ---------------      ----- ------------  ---------------
    12      2.131192   1 C  pz               27     -2.094340   2 C  pz        
    30      1.699355   2 C  pz               33     -1.638624   3 H  s         
    51      1.638559   5 H  s                32      1.370402   3 H  s         
    50     -1.370346   5 H  s                15     -1.293789   1 C  pz        
    26      0.936845   2 C  py               14      0.929141   1 C  py        
 
 Vector   65  Occ=0.000000D+00  E= 2.063430D+00
              MO Center=  2.3D-01, -3.4D-01,  7.8D-01, r^2= 4.2D+00
   Bfn.  Coefficient  Atom+Function         Bfn.  Coefficient  Atom+Function  
  ----- ------------  ---------------      ----- ------------  ---------------
    38      1.622604   4 C  s                56      1.622594   6 C  s         
    37     -1.326578   4 C  s                55     -1.326576   6 C  s         
    68     -1.222649   7 H  s                80     -1.222672  11 H  s         
    71     -0.732350   8 H  s                74     -0.732532   9 H  s         
    77     -0.732531  10 H  s                83     -0.732307  12 H  s         
 
 Vector   66  Occ=0.000000D+00  E= 2.151295D+00
              MO Center=  1.3D-01, -1.9D-01,  4.5D-01, r^2= 6.0D+00
   Bfn.  Coefficient  Atom+Function         Bfn.  Coefficient  Atom+Function  
  ----- ------------  ---------------      ----- ------------  ---------------
    38      2.037513   4 C  s                56     -2.037542   6 C  s         
    37     -1.605250   4 C  s                55      1.605277   6 C  s         
    15     -1.194520   1 C  pz               71     -1.077034   8 H  s         
    74     -1.076616   9 H  s                77      1.076633  10 H  s         
    83      1.077066  12 H  s                 5     -1.040456   1 C  s         
 
 Vector   67  Occ=0.000000D+00  E= 2.257497D+00
              MO Center=  3.2D-02, -4.6D-02,  1.1D-01, r^2= 5.1D+00
   Bfn.  Coefficient  Atom+Function         Bfn.  Coefficient  Atom+Function  
  ----- ------------  ---------------      ----- ------------  ---------------
    68      0.878270   7 H  s                80      0.878333  11 H  s         
     5     -0.817320   1 C  s                20     -0.817427   2 C  s         
    32      0.805614   3 H  s                50      0.805647   5 H  s         
     4      0.764630   1 C  s                19      0.764689   2 C  s         
    67     -0.671050   7 H  s                79     -0.671084  11 H  s         
 
 Vector   68  Occ=0.000000D+00  E= 2.280913D+00
              MO Center=  1.4D-01, -2.0D-01,  4.6D-01, r^2= 7.3D+00
   Bfn.  Coefficient  Atom+Function         Bfn.  Coefficient  Atom+Function  
  ----- ------------  ---------------      ----- ------------  ---------------
    71      1.159605   8 H  s                74     -1.159165   9 H  s         
    77      1.159432  10 H  s                83     -1.159560  12 H  s         
    70     -0.796959   8 H  s                73      0.796542   9 H  s         
    76     -0.796716  10 H  s                82      0.796944  12 H  s         
    72     -0.743424   8 H  s                75      0.742828   9 H  s         
 
 Vector   69  Occ=0.000000D+00  E= 2.300095D+00
              MO Center= -1.6D-01,  2.4D-01, -5.5D-01, r^2= 5.4D+00
   Bfn.  Coefficient  Atom+Function         Bfn.  Coefficient  Atom+Function  
  ----- ------------  ---------------      ----- ------------  ---------------
    32      1.232654   3 H  s                50      1.232513   5 H  s         
    31     -0.849611   3 H  s                49     -0.849513   5 H  s         
    30      0.675122   2 C  pz               74      0.663661   9 H  s         
    77      0.663352  10 H  s                71      0.656511   8 H  s         
    83      0.656909  12 H  s                69      0.540341   7 H  s         
 
 Vector   70  Occ=0.000000D+00  E= 2.306874D+00
              MO Center=  1.4D-01, -2.0D-01,  4.7D-01, r^2= 7.0D+00
   Bfn.  Coefficient  Atom+Function         Bfn.  Coefficient  Atom+Function  
  ----- ------------  ---------------      ----- ------------  ---------------
    71      1.099333   8 H  s                74     -1.095118   9 H  s         
    77     -1.095203  10 H  s                83      1.099019  12 H  s         
    70     -0.797388   8 H  s                73      0.795027   9 H  s         
    76      0.795067  10 H  s                82     -0.797189  12 H  s         
    72     -0.469785   8 H  s                75      0.467362   9 H  s         
 
 Vector   71  Occ=0.000000D+00  E= 2.328442D+00
              MO Center= -7.6D-02,  1.1D-01, -2.5D-01, r^2= 4.4D+00
   Bfn.  Coefficient  Atom+Function         Bfn.  Coefficient  Atom+Function  
  ----- ------------  ---------------      ----- ------------  ---------------
    30      2.929856   2 C  pz               15     -2.312568   1 C  pz        
     6     -1.997301   1 C  s                21      1.997181   2 C  s         
     5      1.899067   1 C  s                20     -1.898960   2 C  s         
    14      1.561965   1 C  py                4     -1.311431   1 C  s         
    19      1.311373   2 C  s                39      1.212417   4 C  s         
 
 Vector   72  Occ=0.000000D+00  E= 2.420672D+00
              MO Center=  1.6D-01, -2.2D-01,  5.2D-01, r^2= 4.3D+00
   Bfn.  Coefficient  Atom+Function         Bfn.  Coefficient  Atom+Function  
  ----- ------------  ---------------      ----- ------------  ---------------
    15      2.645555   1 C  pz               30     -2.586593   2 C  pz        
    68      1.327678   7 H  s                80     -1.327570  11 H  s         
    69     -1.320148   7 H  s                81      1.320111  11 H  s         
    29      1.169385   2 C  py               14     -1.087086   1 C  py        
    33      1.057762   3 H  s                51     -1.057614   5 H  s         
 
 Vector   73  Occ=0.000000D+00  E= 2.469589D+00
              MO Center= -1.5D-01,  2.2D-01, -5.1D-01, r^2= 2.6D+00
   Bfn.  Coefficient  Atom+Function         Bfn.  Coefficient  Atom+Function  
  ----- ------------  ---------------      ----- ------------  ---------------
     5      3.241887   1 C  s                20      3.241903   2 C  s         
     4     -2.605546   1 C  s                19     -2.605603   2 C  s         
     6     -2.370600   1 C  s                21     -2.370465   2 C  s         
    38      0.959314   4 C  s                56      0.959235   6 C  s         
    37     -0.841241   4 C  s                55     -0.841171   6 C  s         
 
 Vector   74  Occ=0.000000D+00  E= 2.691574D+00
              MO Center= -2.3D-01,  3.4D-01, -7.8D-01, r^2= 2.3D+00
   Bfn.  Coefficient  Atom+Function         Bfn.  Coefficient  Atom+Function  
  ----- ------------  ---------------      ----- ------------  ---------------
     6      6.589636   1 C  s                21     -6.590079   2 C  s         
     5     -4.266440   1 C  s                20      4.266715   2 C  s         
     4      2.752518   1 C  s                19     -2.752683   2 C  s         
    29     -1.898607   2 C  py               28      1.760959   2 C  px        
    15     -1.610777   1 C  pz               14     -1.582489   1 C  py        
 
 Vector   75  Occ=0.000000D+00  E= 2.702316D+00
              MO Center=  1.2D-01, -1.8D-01,  4.1D-01, r^2= 4.5D+00
   Bfn.  Coefficient  Atom+Function         Bfn.  Coefficient  Atom+Function  
  ----- ------------  ---------------      ----- ------------  ---------------
    39      4.578206   4 C  s                57      4.578158   6 C  s         
    38     -3.463890   4 C  s                56     -3.463897   6 C  s         
    37      2.462303   4 C  s                55      2.462303   6 C  s         
     6     -2.079349   1 C  s                21     -2.077054   2 C  s         
     5      1.371189   1 C  s                20      1.369709   2 C  s         
 
 Vector   76  Occ=0.000000D+00  E= 2.849561D+00
              MO Center=  1.6D-01, -2.3D-01,  5.3D-01, r^2= 4.7D+00
   Bfn.  Coefficient  Atom+Function         Bfn.  Coefficient  Atom+Function  
  ----- ------------  ---------------      ----- ------------  ---------------
    39      7.379226   4 C  s                57     -7.379395   6 C  s         
    15     -4.972617   1 C  pz               38     -3.896622   4 C  s         
    56      3.896700   6 C  s                30      3.442382   2 C  pz        
    29     -2.884965   2 C  py               37      2.509244   4 C  s         
    55     -2.509291   6 C  s                28      2.272926   2 C  px        
 
 Vector   77  Occ=0.000000D+00  E= 1.147722D+01
              MO Center= -1.7D-01,  2.4D-01, -5.6D-01, r^2= 9.4D-01
   Bfn.  Coefficient  Atom+Function         Bfn.  Coefficient  Atom+Function  
  ----- ------------  ---------------      ----- ------------  ---------------
     4     -2.280468   1 C  s                19     -2.280506   2 C  s         
     3      2.260689   1 C  s                18      2.260732   2 C  s         
     5      1.867719   1 C  s                20      1.867738   2 C  s         
     2     -1.192479   1 C  s                17     -1.192502   2 C  s         
     6     -1.106853   1 C  s                21     -1.106814   2 C  s         
 
 Vector   78  Occ=0.000000D+00  E= 1.167459D+01
              MO Center=  1.3D-01, -1.9D-01,  4.3D-01, r^2= 2.9D+00
   Bfn.  Coefficient  Atom+Function         Bfn.  Coefficient  Atom+Function  
  ----- ------------  ---------------      ----- ------------  ---------------
    37     -2.350308   4 C  s                55     -2.350378   6 C  s         
    36      2.280992   4 C  s                54      2.281058   6 C  s         
    38      2.062192   4 C  s                56      2.062258   6 C  s         
    39     -1.625485   4 C  s                57     -1.625545   6 C  s         
    35     -1.194943   4 C  s                53     -1.194977   6 C  s         
 
 Vector   79  Occ=0.000000D+00  E= 1.172895D+01
              MO Center=  1.4D-01, -2.0D-01,  4.7D-01, r^2= 2.9D+00
   Bfn.  Coefficient  Atom+Function         Bfn.  Coefficient  Atom+Function  
  ----- ------------  ---------------      ----- ------------  ---------------
    37     -2.473208   4 C  s                55      2.473140   6 C  s         
    36      2.336546   4 C  s                54     -2.336479   6 C  s         
    38      2.288602   4 C  s                56     -2.288545   6 C  s         
    39     -2.191977   4 C  s                57      2.191947   6 C  s         
    35     -1.217705   4 C  s                53      1.217670   6 C  s         
 
 Vector   80  Occ=0.000000D+00  E= 1.189089D+01
              MO Center= -1.8D-01,  2.5D-01, -5.9D-01, r^2= 8.1D-01
   Bfn.  Coefficient  Atom+Function         Bfn.  Coefficient  Atom+Function  
  ----- ------------  ---------------      ----- ------------  ---------------
     6      2.904084   1 C  s                21     -2.904028   2 C  s         
     4      2.526010   1 C  s                19     -2.525959   2 C  s         
     5     -2.497615   1 C  s                20      2.497562   2 C  s         
     3     -2.351020   1 C  s                18      2.350975   2 C  s         
     2      1.219342   1 C  s                17     -1.219319   2 C  s         
 
 Vector   81  Occ=0.000000D+00  E= 6.242986D+01
              MO Center= -1.7D-01,  2.4D-01, -5.5D-01, r^2= 6.6D-01
   Bfn.  Coefficient  Atom+Function         Bfn.  Coefficient  Atom+Function  
  ----- ------------  ---------------      ----- ------------  ---------------
     2      2.032453   1 C  s                17      2.032494   2 C  s         
     3     -1.534625   1 C  s                18     -1.534655   2 C  s         
     1     -1.207228   1 C  s                16     -1.207252   2 C  s         
     4      1.003418   1 C  s                19      1.003436   2 C  s         
     5     -0.779630   1 C  s                20     -0.779639   2 C  s         
 
 Vector   82  Occ=0.000000D+00  E= 6.262008D+01
              MO Center=  1.3D-01, -1.8D-01,  4.2D-01, r^2= 2.6D+00
   Bfn.  Coefficient  Atom+Function         Bfn.  Coefficient  Atom+Function  
  ----- ------------  ---------------      ----- ------------  ---------------
    35      2.044431   4 C  s                53      2.044468   6 C  s         
    36     -1.557856   4 C  s                54     -1.557884   6 C  s         
    34     -1.208637   4 C  s                52     -1.208658   6 C  s         
    37      1.043295   4 C  s                55      1.043314   6 C  s         
    38     -0.868794   4 C  s                56     -0.868811   6 C  s         
 
 Vector   83  Occ=0.000000D+00  E= 6.267857D+01
              MO Center=  1.4D-01, -2.0D-01,  4.6D-01, r^2= 2.6D+00
   Bfn.  Coefficient  Atom+Function         Bfn.  Coefficient  Atom+Function  
  ----- ------------  ---------------      ----- ------------  ---------------
    35      2.086556   4 C  s                53     -2.086517   6 C  s         
    36     -1.598514   4 C  s                54      1.598484   6 C  s         
    34     -1.231232   4 C  s                52      1.231208   6 C  s         
    37      1.099512   4 C  s                55     -1.099492   6 C  s         
    38     -0.964017   4 C  s                56      0.964001   6 C  s         
 
 Vector   84  Occ=0.000000D+00  E= 6.283916D+01
              MO Center= -1.8D-01,  2.5D-01, -5.9D-01, r^2= 5.4D-01
   Bfn.  Coefficient  Atom+Function         Bfn.  Coefficient  Atom+Function  
  ----- ------------  ---------------      ----- ------------  ---------------
     2      2.096957   1 C  s                17     -2.096916   2 C  s         
     3     -1.618233   1 C  s                18      1.618201   2 C  s         
     6      1.246808   1 C  s                21     -1.246783   2 C  s         
     1     -1.232462   1 C  s                16      1.232438   2 C  s         
     4      1.134757   1 C  s                19     -1.134734   2 C  s         
 

 center of mass
 --------------
 x =  -0.01532698 y =   0.02212499 z =  -0.05128875

 moments of inertia (a.u.)
 ------------------
         315.661061152034         140.931488664450          73.337535972621
         140.931488664450         295.019161509948         -69.138578835156
          73.337535972621         -69.138578835156         305.946350866981
 
     Multipole analysis of the density
     ---------------------------------
 
     L   x y z        total         alpha         beta         nuclear
     -   - - -        -----         -----         ----         -------
     0   0 0 0     -0.000000    -16.000000    -16.000000     32.000000
 
     1   1 0 0      0.025791      0.012895      0.012895      0.000000
     1   0 1 0     -0.037289     -0.018645     -0.018645     -0.000000
     1   0 0 1      0.086343      0.043172      0.043172      0.000000
 
     2   2 0 0    -20.191355    -56.316731    -56.316731     92.442107
     2   1 1 0     -1.106165     43.077218     43.077218    -87.260602
     2   1 0 1     -0.304181     22.082303     22.082303    -44.468788
     2   0 2 0    -19.971698    -62.696915    -62.696915    105.422132
     2   0 1 1      0.175907    -20.681365    -20.681365     41.538637
     2   0 0 2    -19.446190    -60.109712    -60.109712    100.773234
 

 Task  times  cpu:        2.1s     wall:        2.3s
 
 
                                NWChem Input Module
                                -------------------
 
 
 Summary of allocated global arrays
-----------------------------------
  No active global arrays



                         GA Statistics for process    0
                         ------------------------------

       create   destroy   get      put      acc     scatter   gather  read&inc
calls:  158      158     1.01e+04 1543     8130        0        0      432     
number of processes/call 1.01e+01 3.56e+01 6.22e+00 0.00e+00 0.00e+00
bytes total:             1.84e+07 2.49e+06 9.72e+06 0.00e+00 0.00e+00 3.46e+03
bytes remote:            1.52e+07 1.49e+06 8.38e+06 0.00e+00 0.00e+00 0.00e+00
Max memory consumed for GA by this process: 272352 bytes
 
 
 
                                     CITATION
                                     --------
                Please cite the following reference when publishing
                           results obtained with NWChem:
 
          E. Apr, E. J. Bylaska, W. A. de Jong, N. Govind, K. Kowalski,
       T. P. Straatsma, M. Valiev, H. J. J. van Dam, Y. Alexeev, J. Anchell,
       V. Anisimov, F. W. Aquino, R. Atta-Fynn, J. Autschbach, N. P. Bauman,
     J. C. Becca, D. E. Bernholdt, K. Bhaskaran-Nair, S. Bogatko, P. Borowski,
        J. Boschen, J. Brabec, A. Bruner, E. Caut, Y. Chen, G. N. Chuev,
      C. J. Cramer, J. Daily, M. J. O. Deegan, T. H. Dunning Jr., M. Dupuis,
   K. G. Dyall, G. I. Fann, S. A. Fischer, A. Fonari, H. Frchtl, L. Gagliardi,
      J. Garza, N. Gawande, S. Ghosh, K. Glaesemann, A. W. Gtz, J. Hammond,
       V. Helms, E. D. Hermes, K. Hirao, S. Hirata, M. Jacquelin, L. Jensen,
   B. G. Johnson, H. Jnsson, R. A. Kendall, M. Klemm, R. Kobayashi, V. Konkov,
      S. Krishnamoorthy, M. Krishnan, Z. Lin, R. D. Lins, R. J. Littlefield,
      A. J. Logsdail, K. Lopata, W. Ma, A. V. Marenich, J. Martin del Campo,
   D. Mejia-Rodriguez, J. E. Moore, J. M. Mullin, T. Nakajima, D. R. Nascimento,
    J. A. Nichols, P. J. Nichols, J. Nieplocha, A. Otero-de-la-Roza, B. Palmer,
    A. Panyala, T. Pirojsirikul, B. Peng, R. Peverati, J. Pittner, L. Pollack,
   R. M. Richard, P. Sadayappan, G. C. Schatz, W. A. Shelton, D. W. Silverstein,
   D. M. A. Smith, T. A. Soares, D. Song, M. Swart, H. L. Taylor, G. S. Thomas,
            V. Tipparaju, D. G. Truhlar, K. Tsemekhman, T. Van Voorhis,
     . Vzquez-Mayagoitia, P. Verma, O. Villa, A. Vishnu, K. D. Vogiatzis,
        D. Wang, J. H. Weare, M. J. Williamson, T. L. Windus, K. Woliski,
        A. T. Wong, Q. Wu, C. Yang, Q. Yu, M. Zacharias, Z. Zhang, Y. Zhao,
                                and R. J. Harrison
                        "NWChem: Past, present, and future
                         J. Chem. Phys. 152, 184102 (2020)
                               doi:10.1063/5.0004997
 
                                      AUTHORS
                                      -------
     E. Apra, E. J. Bylaska, N. Govind, K. Kowalski, M. Valiev, W. A. de Jong,
      T. P. Straatsma, H. J. J. van Dam, D. Wang, T. L. Windus, N. P. Bauman,
       A. Panyala, J. Hammond, J. Autschbach, K. Bhaskaran-Nair, J. Brabec,
    K. Lopata, S. A. Fischer, S. Krishnamoorthy, M. Jacquelin, W. Ma, M. Klemm,
       O. Villa, Y. Chen, V. Anisimov, F. Aquino, S. Hirata, M. T. Hackler,
           Eric Hermes, L. Jensen, J. E. Moore, J. C. Becca, V. Konjkov,
            D. Mejia-Rodriguez, T. Risthaus, M. Malagoli, A. Marenich,
   A. Otero-de-la-Roza, J. Mullin, P. Nichols, R. Peverati, J. Pittner, Y. Zhao,
        P.-D. Fan, A. Fonari, M. J. Williamson, R. J. Harrison, J. R. Rehr,
      M. Dupuis, D. Silverstein, D. M. A. Smith, J. Nieplocha, V. Tipparaju,
      M. Krishnan, B. E. Van Kuiken, A. Vazquez-Mayagoitia, M. Swart, Q. Wu,
   T. Van Voorhis, A. A. Auer, M. Nooijen, L. D. Crosby, E. Brown, G. Cisneros,
     G. I. Fann, H. Fruchtl, J. Garza, K. Hirao, R. A. Kendall, J. A. Nichols,
       K. Tsemekhman, K. Wolinski, J. Anchell, D. E. Bernholdt, P. Borowski,
       T. Clark, D. Clerc, H. Dachsel, M. J. O. Deegan, K. Dyall, D. Elwood,
      E. Glendening, M. Gutowski, A. C. Hess, J. Jaffe, B. G. Johnson, J. Ju,
        R. Kobayashi, R. Kutteh, Z. Lin, R. Littlefield, X. Long, B. Meng,
      T. Nakajima, S. Niu, L. Pollack, M. Rosing, K. Glaesemann, G. Sandrone,
      M. Stave, H. Taylor, G. Thomas, J. H. van Lenthe, A. T. Wong, Z. Zhang.

 Total times  cpu:        2.1s     wall:        2.4s
