 
             Northwest Computational Chemistry Package (NWChem) 7.0.0
             --------------------------------------------------------
 
 
                    Environmental Molecular Sciences Laboratory
                       Pacific Northwest National Laboratory
                                Richland, WA 99352
 
                              Copyright (c) 1994-2020
                       Pacific Northwest National Laboratory
                            Battelle Memorial Institute
 
             NWChem is an open-source computational chemistry package
                        distributed under the terms of the
                      Educational Community License (ECL) 2.0
             A copy of the license is included with this distribution
                              in the LICENSE.TXT file
 
                                  ACKNOWLEDGMENT
                                  --------------

            This software and its documentation were developed at the
            EMSL at Pacific Northwest National Laboratory, a multiprogram
            national laboratory, operated for the U.S. Department of Energy
            by Battelle under Contract Number DE-AC05-76RL01830. Support
            for this work was provided by the Department of Energy Office
            of Biological and Environmental Research, Office of Basic
            Energy Sciences, and the Office of Advanced Scientific Computing.


                                NWChem Input Module
                                -------------------
 
 
 Summary of "ao basis" -> "" (spherical)
 ------------------------------------------------------------------------------
       Tag                 Description            Shells   Functions and Types
 ---------------- ------------------------------  ------  ---------------------
 *                        ahlrichs_vtz                on all atoms 



 Scaling coordinates for geometry "geometry" by  1.889725989
 (inverse scale =  0.529177249)

 
 
                             Geometry "geometry" -> ""
                             -------------------------
 
 Output coordinates in angstroms (scale by  1.889725989 to convert to a.u.)
 
  No.       Tag          Charge          X              Y              Z
 ---- ---------------- ---------- -------------- -------------- --------------
    1 C                    6.0000    -0.59951542     0.80255290    -0.45086700
    2 C                    6.0000     0.14730898    -0.12593532    -1.07900314
    3 H                    1.0000    -1.14306562     1.52624786    -1.07136544
    4 C                    6.0000    -0.81485580     0.96357688     1.03284389
    5 H                    1.0000     0.18365486    -0.09619679    -2.17537706
    6 C                    6.0000     0.98493478    -1.21298255    -0.45422950
    7 H                    1.0000    -0.16330706     0.28229710     1.60062608
    8 C                    6.0000    -2.28520694     0.72831045     1.43924501
    9 H                    1.0000    -0.52461462     1.98779524     1.32934551
   10 H                    1.0000     0.65689280    -2.19164826    -0.84908226
   11 H                    1.0000     0.82891853    -1.25237448     0.63440293
   12 C                    6.0000     2.48886326    -1.03724383    -0.75344393
   13 H                    1.0000    -2.59253338    -0.30192419     1.20706133
   14 H                    1.0000    -2.95897360     1.40842205     0.89538071
   15 H                    1.0000    -2.43076033     0.89763007     2.51673434
   16 H                    1.0000     2.67514939    -1.00996138    -1.83828541
   17 H                    1.0000     3.07692345    -1.86517979    -0.32973242
   18 H                    1.0000     2.86254233    -0.09477864    -0.32698040
 
      Atomic Mass 
      ----------- 
 
      C                 12.000000
      H                  1.007825
 

 Effective nuclear repulsion energy (a.u.)     229.6861571680

            Nuclear Dipole moment (a.u.) 
            ----------------------------
        X                 Y               Z
 ---------------- ---------------- ----------------
     0.0000000000    -0.0000000000    -0.0000000000
 
 
            XYZ format geometry
            -------------------
    18
 geometry
 C                    -0.59951542     0.80255290    -0.45086700
 C                     0.14730898    -0.12593532    -1.07900314
 H                    -1.14306562     1.52624786    -1.07136544
 C                    -0.81485580     0.96357688     1.03284389
 H                     0.18365486    -0.09619679    -2.17537706
 C                     0.98493478    -1.21298255    -0.45422950
 H                    -0.16330706     0.28229710     1.60062608
 C                    -2.28520694     0.72831045     1.43924501
 H                    -0.52461462     1.98779524     1.32934551
 H                     0.65689280    -2.19164826    -0.84908226
 H                     0.82891853    -1.25237448     0.63440293
 C                     2.48886326    -1.03724383    -0.75344393
 H                    -2.59253338    -0.30192419     1.20706133
 H                    -2.95897360     1.40842205     0.89538071
 H                    -2.43076033     0.89763007     2.51673434
 H                     2.67514939    -1.00996138    -1.83828541
 H                     3.07692345    -1.86517979    -0.32973242
 H                     2.86254233    -0.09477864    -0.32698040
 
 ==============================================================================
                                internuclear distances
 ------------------------------------------------------------------------------
       center one      |      center two      | atomic units |  angstroms
 ------------------------------------------------------------------------------
    2 C                |   1 C                |     2.54545  |     1.34699
    3 H                |   1 C                |     2.07371  |     1.09736
    4 C                |   1 C                |     2.84948  |     1.50788
    5 H                |   2 C                |     2.07375  |     1.09738
    6 C                |   2 C                |     2.84944  |     1.50786
    7 H                |   4 C                |     2.07959  |     1.10047
    8 C                |   4 C                |     2.91682  |     1.54352
    9 H                |   4 C                |     2.08828  |     1.10507
   10 H                |   6 C                |     2.08839  |     1.10513
   11 H                |   6 C                |     2.07957  |     1.10046
   12 C                |   6 C                |     2.91668  |     1.54344
   13 H                |   8 C                |     2.07848  |     1.09988
   14 H                |   8 C                |     2.08067  |     1.10105
   15 H                |   8 C                |     2.07942  |     1.10038
   16 H                |  12 C                |     2.08070  |     1.10106
   17 H                |  12 C                |     2.07941  |     1.10037
   18 H                |  12 C                |     2.07848  |     1.09989
 ------------------------------------------------------------------------------
                         number of included internuclear distances:         17
 ==============================================================================



 ==============================================================================
                                 internuclear angles
 ------------------------------------------------------------------------------
        center 1       |       center 2       |       center 3       |  degrees
 ------------------------------------------------------------------------------
    2 C                |   1 C                |   3 H                |   117.74
    2 C                |   1 C                |   4 C                |   127.71
    3 H                |   1 C                |   4 C                |   114.53
    1 C                |   2 C                |   5 H                |   117.75
    1 C                |   2 C                |   6 C                |   127.71
    5 H                |   2 C                |   6 C                |   114.53
    1 C                |   4 C                |   7 H                |   110.92
    1 C                |   4 C                |   8 C                |   112.26
    1 C                |   4 C                |   9 H                |   108.99
    7 H                |   4 C                |   8 C                |   109.50
    7 H                |   4 C                |   9 H                |   106.25
    8 C                |   4 C                |   9 H                |   108.71
    2 C                |   6 C                |  10 H                |   109.00
    2 C                |   6 C                |  11 H                |   110.91
    2 C                |   6 C                |  12 C                |   112.26
   10 H                |   6 C                |  11 H                |   106.24
   10 H                |   6 C                |  12 C                |   108.71
   11 H                |   6 C                |  12 C                |   109.51
    4 C                |   8 C                |  13 H                |   110.69
    4 C                |   8 C                |  14 H                |   111.02
    4 C                |   8 C                |  15 H                |   111.12
   13 H                |   8 C                |  14 H                |   107.66
   13 H                |   8 C                |  15 H                |   108.29
   14 H                |   8 C                |  15 H                |   107.92
    6 C                |  12 C                |  16 H                |   111.02
    6 C                |  12 C                |  17 H                |   111.13
    6 C                |  12 C                |  18 H                |   110.70
   16 H                |  12 C                |  17 H                |   107.92
   16 H                |  12 C                |  18 H                |   107.66
   17 H                |  12 C                |  18 H                |   108.29
 ------------------------------------------------------------------------------
                            number of included internuclear angles:         30
 ==============================================================================



                              Aldehyde and Ketone set
                              -----------------------
 
                                 NWChem DFT Module
                                 -----------------
 
 
                              Aldehyde and Ketone set
 
 
                      Basis "ao basis" -> "ao basis" (spherical)
                      -----
  C (Carbon)
  ----------
            Exponent  Coefficients 
       -------------- ---------------------------------------------------------
  1 S  8.50603840E+03  0.000534
  1 S  1.27573290E+03  0.004125
  1 S  2.90311870E+02  0.021171
  1 S  8.20562000E+01  0.082418
  1 S  2.64796410E+01  0.240129
 
  2 S  9.24145850E+00  1.000000
 
  3 S  3.36435300E+00  1.000000
 
  4 S  8.71741640E-01  1.000000
 
  5 S  3.63523520E-01  1.000000
 
  6 S  1.28731350E-01  1.000000
 
  7 P  3.47094960E+01  0.005330
  7 P  7.95908830E+00  0.035866
  7 P  2.37869720E+00  0.142003
  7 P  8.15400650E-01  0.342031
 
  8 P  2.89537850E-01  1.000000
 
  9 P  1.00847540E-01  1.000000
 
  H (Hydrogen)
  ------------
            Exponent  Coefficients 
       -------------- ---------------------------------------------------------
  1 S  3.40613410E+01  0.006025
  1 S  5.12357460E+00  0.045021
  1 S  1.16466260E+00  0.201897
 
  2 S  3.27230410E-01  1.000000
 
  3 S  1.03072410E-01  1.000000
 


 Summary of "ao basis" -> "ao basis" (spherical)
 ------------------------------------------------------------------------------
       Tag                 Description            Shells   Functions and Types
 ---------------- ------------------------------  ------  ---------------------
 C                        ahlrichs vtz               9       15   6s3p
 H                        ahlrichs vtz               3        3   3s




 Summary of "ao basis" -> "ao basis" (spherical)
 ------------------------------------------------------------------------------
       Tag                 Description            Shells   Functions and Types
 ---------------- ------------------------------  ------  ---------------------
 C                        ahlrichs vtz               9       15   6s3p
 H                        ahlrichs vtz               3        3   3s


  Caching 1-el integrals 
 
            General Information
            -------------------
          SCF calculation type: DFT
          Wavefunction type:  closed shell.
          No. of atoms     :    18
          No. of electrons :    48
           Alpha electrons :    24
            Beta electrons :    24
          Charge           :     0
          Spin multiplicity:     1
          Use of symmetry is: off; symmetry adaption is: off
          Maximum number of iterations: 999
          This is a Direct SCF calculation.
          AO basis - number of functions:   126
                     number of shells:    90
          Convergence on energy requested:  1.00D-08
          Convergence on density requested:  1.00D-07
          Convergence on gradient requested:  1.00D-06
 
              XC Information
              --------------
                        PBE96 Method XC Functional
          PerdewBurkeErnzerhof Exchange Functional  1.000          
            Perdew 1991 LDA Correlation Functional  1.000 local    
           PerdewBurkeErnz. Correlation Functional  1.000 non-local
 
             Grid Information
             ----------------
          Grid used for XC integration:  fine      
          Radial quadrature: Mura-Knowles        
          Angular quadrature: Lebedev. 
          Tag              B.-S. Rad. Rad. Pts. Rad. Cut. Ang. Pts.
          ---              ---------- --------- --------- ---------
          C                   0.70       70          15.0       590
          H                   0.35       60          16.0       590
          Grid pruning is: on 
          Number of quadrature shells:  1140
          Spatial weights used:  Erf1
 
          Convergence Information
          -----------------------
          Convergence aids based upon iterative change in 
          total energy or number of iterations. 
          Levelshifting, if invoked, occurs when the 
          HOMO/LUMO gap drops below (HL_TOL):  1.00D-02
          DIIS, if invoked, will attempt to extrapolate 
          using up to (NFOCK): 10 stored Fock matrices.

                    Damping( 0%)  Levelshifting(0.5)       DIIS
                  --------------- ------------------- ---------------
          dE  on:    start            ASAP                start   
          dE off:    2 iters        999 iters           999 iters 

 
      Screening Tolerance Information
      -------------------------------
          Density screening/tol_rho:  1.00D-12
          AO Gaussian exp screening on grid/accAOfunc:  18
          CD Gaussian exp screening on grid/accCDfunc:  20
          XC Gaussian exp screening on grid/accXCfunc:  20
          Schwarz screening/accCoul:  1.00D-12

      Dispersion Parameters
      ---------------------

           DFT-D3BJ Model   
          s6 scale factor  :        1.000000000000
          s8 scale factor  :        0.787500000000
          a1 parameter     :        0.428900000000
          a2 parameter     :        4.440700000000
              vdW contrib  :       -0.013571138934


 Forcing the number of linearly dependent vectors to be  0
 
      Superposition of Atomic Density Guess
      -------------------------------------
 
 Sum of atomic energies:        -232.02458117
   Time after variat. SCF:      0.2
   Time prior to 1st pass:      0.2

 Grid_pts file          = ./18_cisEtCHCHEt.gridpts.00
 Record size in doubles =  12289        No. of grid_pts per rec  =   3070
 Max. records in memory =     18        Max. recs in file   =  67550051

 Grid integrated density:      48.000025910249
 Requested integration accuracy:   0.10E-06

           Memory utilization after 1st SCF pass: 
           Heap Space remaining (MW):        0.00                 242
          Stack Space remaining (MW):      288.36           288357140

   convergence    iter        energy       DeltaE   RMS-Dens  Diis-err    time
 ---------------- ----- ----------------- --------- --------- ---------  ------
 d= 0,ls=0.0,diis     1   -236.1701074517 -4.66D+02  2.51D-02  6.79D+01     0.6
 Grid integrated density:      48.000012415878
 Requested integration accuracy:   0.10E-06
 d= 0,ls=0.0,diis     2   -235.2538341514  9.16D-01  1.74D-02  2.04D+00     1.2
 Grid integrated density:      48.000020665446
 Requested integration accuracy:   0.10E-06
 d= 0,ls=0.0,diis     3   -234.9815492659  2.72D-01  1.19D-02  3.83D+00     1.8
 Grid integrated density:      48.000017131319
 Requested integration accuracy:   0.10E-06
 d= 0,ls=0.0,diis     4   -235.5346023202 -5.53D-01  1.06D-03  7.83D-03     2.4
 Grid integrated density:      48.000016551023
 Requested integration accuracy:   0.10E-06
 d= 0,ls=0.0,diis     5   -235.5355448077 -9.42D-04  2.94D-04  2.85D-03     2.9
 Grid integrated density:      48.000016722412
 Requested integration accuracy:   0.10E-06
 d= 0,ls=0.0,diis     6   -235.5358867815 -3.42D-04  8.32D-05  1.52D-04     3.5
 Grid integrated density:      48.000016744958
 Requested integration accuracy:   0.10E-06
 d= 0,ls=0.0,diis     7   -235.5359055564 -1.88D-05  2.03D-05  3.00D-06     4.0
 Grid integrated density:      48.000016734306
 Requested integration accuracy:   0.10E-06
 d= 0,ls=0.0,diis     8   -235.5359059016 -3.45D-07  7.16D-06  1.22D-06     4.5
 Grid integrated density:      48.000016735375
 Requested integration accuracy:   0.10E-06
 d= 0,ls=0.0,diis     9   -235.5359060268 -1.25D-07  3.27D-06  3.30D-07     5.0
 Grid integrated density:      48.000016736237
 Requested integration accuracy:   0.10E-06
 d= 0,ls=0.0,diis    10   -235.5359060720 -4.53D-08  7.71D-07  1.23D-08     5.5
 Grid integrated density:      48.000016735830
 Requested integration accuracy:   0.10E-06
 d= 0,ls=0.0,diis    11   -235.5359060737 -1.66D-09  2.26D-07  6.51D-10     6.1
 Grid integrated density:      48.000016735865
 Requested integration accuracy:   0.10E-06
 d= 0,ls=0.0,diis    12   -235.5359060738 -9.55D-11  3.94D-08  1.01D-11     6.6


         Total DFT energy =     -235.535906073792
      One electron energy =     -770.228965939099
           Coulomb energy =      341.624699023893
          Exchange energy =      -35.065108643568
       Correlation energy =       -1.539116544081
 Nuclear repulsion energy =      229.686157167997

    Dispersion correction =       -0.013571138934

 Numeric. integr. density =       48.000016735865

     Total iterative time =      6.3s


 
                       DFT Final Molecular Orbital Analysis
                       ------------------------------------
 
 Vector    1  Occ=2.000000D+00  E=-9.892224D+00
              MO Center=  9.8D-01, -1.2D+00, -4.5D-01, r^2= 8.2D-02
   Bfn.  Coefficient  Atom+Function         Bfn.  Coefficient  Atom+Function  
  ----- ------------  ---------------      ----- ------------  ---------------
    53      0.423168   6 C  s                54      0.358320   6 C  s         
    52      0.307994   6 C  s                55      0.057764   6 C  s         
    35     -0.030864   4 C  s                36     -0.026037   4 C  s         
 
 Vector    2  Occ=2.000000D+00  E=-9.892211D+00
              MO Center= -8.1D-01,  9.5D-01,  1.0D+00, r^2= 8.2D-02
   Bfn.  Coefficient  Atom+Function         Bfn.  Coefficient  Atom+Function  
  ----- ------------  ---------------      ----- ------------  ---------------
    35      0.423164   4 C  s                36      0.358331   4 C  s         
    34      0.307993   4 C  s                37      0.057714   4 C  s         
    53      0.030805   6 C  s                54      0.026183   6 C  s         
 
 Vector    3  Occ=2.000000D+00  E=-9.887575D+00
              MO Center= -2.2D-01,  3.3D-01, -7.7D-01, r^2= 4.8D-01
   Bfn.  Coefficient  Atom+Function         Bfn.  Coefficient  Atom+Function  
  ----- ------------  ---------------      ----- ------------  ---------------
    17      0.301751   2 C  s                 2      0.297911   1 C  s         
    18      0.255938   2 C  s                 3      0.252689   1 C  s         
    16      0.219712   2 C  s                 1      0.216918   1 C  s         
    19      0.040714   2 C  s                 4      0.040181   1 C  s         
 
 Vector    4  Occ=2.000000D+00  E=-9.886965D+00
              MO Center= -2.3D-01,  3.4D-01, -7.6D-01, r^2= 4.8D-01
   Bfn.  Coefficient  Atom+Function         Bfn.  Coefficient  Atom+Function  
  ----- ------------  ---------------      ----- ------------  ---------------
     2      0.301995   1 C  s                17     -0.298158   2 C  s         
     3      0.255489   1 C  s                18     -0.252235   2 C  s         
     1      0.219730   1 C  s                16     -0.216936   2 C  s         
     4      0.042085   1 C  s                19     -0.041567   2 C  s         
 
 Vector    5  Occ=2.000000D+00  E=-9.880934D+00
              MO Center= -2.2D+00,  7.0D-01,  1.4D+00, r^2= 4.8D-01
   Bfn.  Coefficient  Atom+Function         Bfn.  Coefficient  Atom+Function  
  ----- ------------  ---------------      ----- ------------  ---------------
    71      0.421061   8 C  s                72      0.356751   8 C  s         
    70      0.306508   8 C  s                73      0.057009   8 C  s         
    95      0.051984  12 C  s                96      0.044034  12 C  s         
    94      0.037839  12 C  s         
 
 Vector    6  Occ=2.000000D+00  E=-9.880933D+00
              MO Center=  2.4D+00, -1.0D+00, -7.2D-01, r^2= 4.8D-01
   Bfn.  Coefficient  Atom+Function         Bfn.  Coefficient  Atom+Function  
  ----- ------------  ---------------      ----- ------------  ---------------
    95      0.421061  12 C  s                96      0.356752  12 C  s         
    94      0.306508  12 C  s                97      0.057000  12 C  s         
    71     -0.051979   8 C  s                72     -0.044050   8 C  s         
    70     -0.037840   8 C  s         
 
 Vector    7  Occ=2.000000D+00  E=-7.356180D-01
              MO Center= -6.5D-02,  9.8D-02, -2.2D-01, r^2= 3.0D+00
   Bfn.  Coefficient  Atom+Function         Bfn.  Coefficient  Atom+Function  
  ----- ------------  ---------------      ----- ------------  ---------------
     5      0.265910   1 C  s                20      0.265967   2 C  s         
    38      0.221643   4 C  s                56      0.221773   6 C  s         
    74      0.128418   8 C  s                98      0.128427  12 C  s         
    39      0.086585   4 C  s                57      0.086534   6 C  s         
     3     -0.081334   1 C  s                18     -0.081350   2 C  s         
 
 Vector    8  Occ=2.000000D+00  E=-6.969551D-01
              MO Center=  6.2D-02, -9.1D-02,  2.1D-01, r^2= 5.4D+00
   Bfn.  Coefficient  Atom+Function         Bfn.  Coefficient  Atom+Function  
  ----- ------------  ---------------      ----- ------------  ---------------
    38      0.275385   4 C  s                56     -0.275367   6 C  s         
    74      0.228791   8 C  s                98     -0.228923  12 C  s         
     5      0.105828   1 C  s                20     -0.105659   2 C  s         
    75      0.075593   8 C  s                99     -0.075586  12 C  s         
    36     -0.075127   4 C  s                54      0.075125   6 C  s         
 
 Vector    9  Occ=2.000000D+00  E=-6.456534D-01
              MO Center= -3.3D-02,  4.8D-02, -1.1D-01, r^2= 5.8D+00
   Bfn.  Coefficient  Atom+Function         Bfn.  Coefficient  Atom+Function  
  ----- ------------  ---------------      ----- ------------  ---------------
    74      0.262251   8 C  s                98      0.262116  12 C  s         
     5     -0.234890   1 C  s                20     -0.234947   2 C  s         
    38      0.111589   4 C  s                56      0.111390   6 C  s         
    75      0.094786   8 C  s                99      0.094756  12 C  s         
    72     -0.071977   8 C  s                96     -0.071942  12 C  s         
 
 Vector   10  Occ=2.000000D+00  E=-5.747660D-01
              MO Center=  3.4D-02, -5.2D-02,  1.2D-01, r^2= 7.0D+00
   Bfn.  Coefficient  Atom+Function         Bfn.  Coefficient  Atom+Function  
  ----- ------------  ---------------      ----- ------------  ---------------
    74      0.268937   8 C  s                98     -0.268898  12 C  s         
    38     -0.186052   4 C  s                56      0.185896   6 C  s         
     5     -0.167121   1 C  s                20      0.167039   2 C  s         
    75      0.100537   8 C  s                99     -0.100641  12 C  s         
    39     -0.078916   4 C  s                57      0.078969   6 C  s         
 
 Vector   11  Occ=2.000000D+00  E=-5.479745D-01
              MO Center=  3.1D-02, -4.5D-02,  1.0D-01, r^2= 5.9D+00
   Bfn.  Coefficient  Atom+Function         Bfn.  Coefficient  Atom+Function  
  ----- ------------  ---------------      ----- ------------  ---------------
    38      0.238530   4 C  s                56      0.238766   6 C  s         
    74     -0.200495   8 C  s                98     -0.200541  12 C  s         
     5     -0.113146   1 C  s                20     -0.113218   2 C  s         
     9      0.109794   1 C  pz               75     -0.091423   8 C  s         
    99     -0.091408  12 C  s                23     -0.089880   2 C  py        
 
 Vector   12  Occ=2.000000D+00  E=-4.719378D-01
              MO Center= -8.1D-02,  1.2D-01, -2.8D-01, r^2= 4.4D+00
   Bfn.  Coefficient  Atom+Function         Bfn.  Coefficient  Atom+Function  
  ----- ------------  ---------------      ----- ------------  ---------------
     5      0.235360   1 C  s                20     -0.235365   2 C  s         
    38     -0.152781   4 C  s                56      0.152530   6 C  s         
    42     -0.126486   4 C  pz               32      0.099428   3 H  s         
    45     -0.099520   4 C  pz               50     -0.099561   5 H  s         
    59     -0.093201   6 C  py               60      0.092208   6 C  pz        
 
 Vector   13  Occ=2.000000D+00  E=-4.348384D-01
              MO Center= -7.2D-02,  1.1D-01, -2.4D-01, r^2= 4.2D+00
   Bfn.  Coefficient  Atom+Function         Bfn.  Coefficient  Atom+Function  
  ----- ------------  ---------------      ----- ------------  ---------------
    24      0.168734   2 C  pz                8     -0.151345   1 C  py        
    41     -0.135602   4 C  py               27      0.128523   2 C  pz        
    60      0.127074   6 C  pz               44     -0.115412   4 C  py        
    63      0.109062   6 C  pz               11     -0.108332   1 C  py        
     7      0.107636   1 C  px               32     -0.080631   3 H  s         
 
 Vector   14  Occ=2.000000D+00  E=-3.968399D-01
              MO Center=  3.1D-02, -4.9D-02,  1.2D-01, r^2= 5.7D+00
   Bfn.  Coefficient  Atom+Function         Bfn.  Coefficient  Atom+Function  
  ----- ------------  ---------------      ----- ------------  ---------------
     9      0.165898   1 C  pz               42     -0.163313   4 C  pz        
    59      0.139580   6 C  py               78     -0.137676   8 C  pz        
    45     -0.125589   4 C  pz               12      0.119664   1 C  pz        
    81     -0.118514   8 C  pz               23     -0.117412   2 C  py        
   101      0.117573  12 C  py               62      0.109937   6 C  py        
 
 Vector   15  Occ=2.000000D+00  E=-3.927257D-01
              MO Center=  8.6D-02, -1.2D-01,  2.5D-01, r^2= 6.5D+00
   Bfn.  Coefficient  Atom+Function         Bfn.  Coefficient  Atom+Function  
  ----- ------------  ---------------      ----- ------------  ---------------
    41      0.164628   4 C  py               77      0.147706   8 C  py        
    44      0.140588   4 C  py               59      0.132819   6 C  py        
    80      0.125641   8 C  py              101      0.123722  12 C  py        
    62      0.114364   6 C  py              104      0.106876  12 C  py        
   102      0.101275  12 C  pz               60      0.095913   6 C  pz        
 
 Vector   16  Occ=2.000000D+00  E=-3.655926D-01
              MO Center= -4.2D-02,  5.0D-02, -1.0D-01, r^2= 6.6D+00
   Bfn.  Coefficient  Atom+Function         Bfn.  Coefficient  Atom+Function  
  ----- ------------  ---------------      ----- ------------  ---------------
    24      0.151826   2 C  pz               77      0.138698   8 C  py        
    80      0.120554   8 C  py              102     -0.119361  12 C  pz        
    27      0.117347   2 C  pz                7      0.106304   1 C  px        
     8     -0.102492   1 C  py              101     -0.101081  12 C  py        
   105     -0.100234  12 C  pz               76     -0.099004   8 C  px        
 
 Vector   17  Occ=2.000000D+00  E=-3.574836D-01
              MO Center=  5.2D-02, -8.1D-02,  1.8D-01, r^2= 8.5D+00
   Bfn.  Coefficient  Atom+Function         Bfn.  Coefficient  Atom+Function  
  ----- ------------  ---------------      ----- ------------  ---------------
    78      0.190029   8 C  pz               81      0.159313   8 C  pz        
   102     -0.142136  12 C  pz              100     -0.132442  12 C  px        
   116      0.123840  15 H  s               122     -0.123431  17 H  s         
   105     -0.122106  12 C  pz                5      0.112438   1 C  s         
    20     -0.112069   2 C  s               103     -0.107032  12 C  px        
 
 Vector   18  Occ=2.000000D+00  E=-3.345762D-01
              MO Center=  3.2D-02, -5.5D-02,  1.4D-01, r^2= 6.6D+00
   Bfn.  Coefficient  Atom+Function         Bfn.  Coefficient  Atom+Function  
  ----- ------------  ---------------      ----- ------------  ---------------
    76     -0.176960   8 C  px               58      0.171635   6 C  px        
    40      0.167761   4 C  px               61      0.149736   6 C  px        
    43      0.144273   4 C  px               79     -0.142794   8 C  px        
   100     -0.135274  12 C  px              101     -0.128151  12 C  py        
   103     -0.108990  12 C  px              104     -0.106101  12 C  py        
 
 Vector   19  Occ=2.000000D+00  E=-3.271683D-01
              MO Center=  6.5D-02, -8.6D-02,  1.7D-01, r^2= 6.2D+00
   Bfn.  Coefficient  Atom+Function         Bfn.  Coefficient  Atom+Function  
  ----- ------------  ---------------      ----- ------------  ---------------
   100      0.188373  12 C  px               58     -0.183476   6 C  px        
    40      0.171320   4 C  px               76     -0.159429   8 C  px        
   103      0.155565  12 C  px               61     -0.152227   6 C  px        
    43      0.142846   4 C  px               79     -0.130498   8 C  px        
    77     -0.111723   8 C  py                8      0.110697   1 C  py        
 
 Vector   20  Occ=2.000000D+00  E=-3.168079D-01
              MO Center=  8.3D-02, -1.2D-01,  2.7D-01, r^2= 7.9D+00
   Bfn.  Coefficient  Atom+Function         Bfn.  Coefficient  Atom+Function  
  ----- ------------  ---------------      ----- ------------  ---------------
    78      0.162021   8 C  pz              102      0.153418  12 C  pz        
    81      0.134857   8 C  pz              105      0.128108  12 C  pz        
   113     -0.123637  14 H  s               119     -0.123639  16 H  s         
   116      0.121953  15 H  s               122      0.122036  17 H  s         
     9      0.118830   1 C  pz               42     -0.113453   4 C  pz        
 
 Vector   21  Occ=2.000000D+00  E=-2.984423D-01
              MO Center=  1.4D-01, -1.5D-01,  2.4D-01, r^2= 6.8D+00
   Bfn.  Coefficient  Atom+Function         Bfn.  Coefficient  Atom+Function  
  ----- ------------  ---------------      ----- ------------  ---------------
    41      0.150904   4 C  py               77     -0.143316   8 C  py        
    44      0.129485   4 C  py               59      0.129797   6 C  py        
   125     -0.123041  18 H  s               101     -0.119819  12 C  py        
    80     -0.119028   8 C  py               89     -0.118280  10 H  s         
   110      0.118749  13 H  s                86      0.113478   9 H  s         
 
 Vector   22  Occ=2.000000D+00  E=-2.969880D-01
              MO Center= -1.3D-02, -2.6D-02,  1.7D-01, r^2= 6.1D+00
   Bfn.  Coefficient  Atom+Function         Bfn.  Coefficient  Atom+Function  
  ----- ------------  ---------------      ----- ------------  ---------------
    41      0.146480   4 C  py               86      0.125891   9 H  s         
    77     -0.123704   8 C  py               44      0.121930   4 C  py        
    89      0.120734  10 H  s                59     -0.116674   6 C  py        
   101      0.111396  12 C  py              110      0.108346  13 H  s         
    68     -0.107455   7 H  s                92     -0.104484  11 H  s         
 
 Vector   23  Occ=2.000000D+00  E=-2.763761D-01
              MO Center= -6.6D-02,  9.9D-02, -2.2D-01, r^2= 4.9D+00
   Bfn.  Coefficient  Atom+Function         Bfn.  Coefficient  Atom+Function  
  ----- ------------  ---------------      ----- ------------  ---------------
    42     -0.180110   4 C  pz                9      0.165493   1 C  pz        
    45     -0.157060   4 C  pz               60      0.153874   6 C  pz        
    24     -0.143615   2 C  pz               32     -0.144094   3 H  s         
    50      0.143936   5 H  s                12      0.139437   1 C  pz        
    63      0.135988   6 C  pz               27     -0.123145   2 C  pz        
 
 Vector   24  Occ=2.000000D+00  E=-2.124108D-01
              MO Center= -1.7D-01,  2.5D-01, -5.7D-01, r^2= 2.8D+00
   Bfn.  Coefficient  Atom+Function         Bfn.  Coefficient  Atom+Function  
  ----- ------------  ---------------      ----- ------------  ---------------
    22      0.218437   2 C  px                7      0.215991   1 C  px        
    25      0.208989   2 C  px               10      0.205394   1 C  px        
     8      0.169710   1 C  py               23      0.166046   2 C  py        
    11      0.160912   1 C  py               26      0.155546   2 C  py        
    28      0.129842   2 C  px               13      0.122716   1 C  px        
 
 Vector   25  Occ=0.000000D+00  E=-1.439298D-02
              MO Center= -1.5D-01,  2.2D-01, -5.0D-01, r^2= 4.4D+00
   Bfn.  Coefficient  Atom+Function         Bfn.  Coefficient  Atom+Function  
  ----- ------------  ---------------      ----- ------------  ---------------
    75      0.468158   8 C  s                99      0.463796  12 C  s         
    28     -0.424865   2 C  px               13      0.396605   1 C  px        
    14      0.354861   1 C  py               29     -0.312990   2 C  py        
   117     -0.305157  15 H  s               123     -0.305608  17 H  s         
    25     -0.267412   2 C  px               10      0.257943   1 C  px        
 
 Vector   26  Occ=0.000000D+00  E= 2.622341D-02
              MO Center=  6.2D-02, -9.3D-02,  2.1D-01, r^2= 9.2D+00
   Bfn.  Coefficient  Atom+Function         Bfn.  Coefficient  Atom+Function  
  ----- ------------  ---------------      ----- ------------  ---------------
    39      1.280616   4 C  s                57      1.279313   6 C  s         
    75      0.639129   8 C  s                99      0.639944  12 C  s         
    69     -0.609421   7 H  s                93     -0.610426  11 H  s         
    87     -0.500242   9 H  s                90     -0.502742  10 H  s         
    33     -0.466058   3 H  s                51     -0.463359   5 H  s         
 
 Vector   27  Occ=0.000000D+00  E= 4.006937D-02
              MO Center=  5.0D-02, -6.9D-02,  1.6D-01, r^2= 1.4D+01
   Bfn.  Coefficient  Atom+Function         Bfn.  Coefficient  Atom+Function  
  ----- ------------  ---------------      ----- ------------  ---------------
    75      1.755942   8 C  s                99     -1.760819  12 C  s         
   114     -0.800520  14 H  s               120      0.798856  16 H  s         
    33     -0.616475   3 H  s                51      0.600903   5 H  s         
    30      0.559804   2 C  pz              123      0.561626  17 H  s         
   117     -0.557663  15 H  s                87     -0.510011   9 H  s         
 
 Vector   28  Occ=0.000000D+00  E= 4.295638D-02
              MO Center= -1.7D-01,  2.6D-01, -6.0D-01, r^2= 8.2D+00
   Bfn.  Coefficient  Atom+Function         Bfn.  Coefficient  Atom+Function  
  ----- ------------  ---------------      ----- ------------  ---------------
    51      1.240271   5 H  s                33      1.231964   3 H  s         
     6     -0.931930   1 C  s                21     -0.928472   2 C  s         
    69     -0.911072   7 H  s                93     -0.906804  11 H  s         
    39      0.547976   4 C  s                57      0.549528   6 C  s         
    30      0.516354   2 C  pz               14     -0.360658   1 C  py        
 
 Vector   29  Occ=0.000000D+00  E= 6.601414D-02
              MO Center=  6.2D-02, -1.1D-01,  2.6D-01, r^2= 1.1D+01
   Bfn.  Coefficient  Atom+Function         Bfn.  Coefficient  Atom+Function  
  ----- ------------  ---------------      ----- ------------  ---------------
    39      1.740743   4 C  s                57     -1.727671   6 C  s         
    87     -1.282495   9 H  s                90      1.284865  10 H  s         
    75     -1.000956   8 C  s                99      0.992733  12 C  s         
   111      0.953552  13 H  s               126     -0.941745  18 H  s         
    33     -0.534868   3 H  s                15     -0.526953   1 C  pz        
 
 Vector   30  Occ=0.000000D+00  E= 7.463546D-02
              MO Center=  4.9D-02, -8.5D-02,  1.8D-01, r^2= 1.5D+01
   Bfn.  Coefficient  Atom+Function         Bfn.  Coefficient  Atom+Function  
  ----- ------------  ---------------      ----- ------------  ---------------
    75      1.876242   8 C  s                99      1.872822  12 C  s         
    57     -1.388360   6 C  s                39     -1.377681   4 C  s         
   114     -0.864542  14 H  s               120     -0.860557  16 H  s         
    90      0.732735  10 H  s                87      0.720707   9 H  s         
   117     -0.500397  15 H  s               123     -0.493956  17 H  s         
 
 Vector   31  Occ=0.000000D+00  E= 8.567199D-02
              MO Center=  1.6D-02, -3.0D-02,  8.1D-02, r^2= 1.4D+01
   Bfn.  Coefficient  Atom+Function         Bfn.  Coefficient  Atom+Function  
  ----- ------------  ---------------      ----- ------------  ---------------
   117     -1.384606  15 H  s               123      1.377527  17 H  s         
    33      1.298406   3 H  s                51     -1.294953   5 H  s         
     6     -1.161182   1 C  s                21      1.156298   2 C  s         
   114      0.963522  14 H  s               120     -0.960171  16 H  s         
    84      0.938078   8 C  pz               30     -0.865340   2 C  pz        
 
 Vector   32  Occ=0.000000D+00  E= 9.249580D-02
              MO Center=  9.0D-02, -1.2D-01,  2.8D-01, r^2= 1.2D+01
   Bfn.  Coefficient  Atom+Function         Bfn.  Coefficient  Atom+Function  
  ----- ------------  ---------------      ----- ------------  ---------------
    87      1.581692   9 H  s                90      1.568721  10 H  s         
    47     -1.432616   4 C  py               66      1.215365   6 C  pz        
    69     -1.113029   7 H  s                93     -1.104639  11 H  s         
    51     -0.930929   5 H  s                33     -0.923266   3 H  s         
   123      0.912326  17 H  s               117      0.901746  15 H  s         
 
 Vector   33  Occ=0.000000D+00  E= 1.026793D-01
              MO Center=  1.2D-01,  2.5D-02, -4.7D-02, r^2= 1.2D+01
   Bfn.  Coefficient  Atom+Function         Bfn.  Coefficient  Atom+Function  
  ----- ------------  ---------------      ----- ------------  ---------------
   126      1.518712  18 H  s               120     -1.365881  16 H  s         
   111      1.336163  13 H  s               114     -1.280809  14 H  s         
   108     -1.108999  12 C  pz               83      0.947074   8 C  py        
   117      0.755139  15 H  s                84     -0.688927   8 C  pz        
    46      0.603467   4 C  px               93     -0.603297  11 H  s         
 
 Vector   34  Occ=0.000000D+00  E= 1.031425D-01
              MO Center= -4.0D-02, -1.1D-01,  1.5D-01, r^2= 1.2D+01
   Bfn.  Coefficient  Atom+Function         Bfn.  Coefficient  Atom+Function  
  ----- ------------  ---------------      ----- ------------  ---------------
    90     -1.469870  10 H  s                87      1.430035   9 H  s         
    47     -1.419151   4 C  py              111      1.305139  13 H  s         
    30      1.296478   2 C  pz               51      1.260879   5 H  s         
    33     -1.245165   3 H  s               107      1.197721  12 C  py        
    65     -1.189933   6 C  py              123      1.175464  17 H  s         
 
 Vector   35  Occ=0.000000D+00  E= 1.085147D-01
              MO Center=  1.2D-01, -2.1D-01,  5.4D-01, r^2= 1.4D+01
   Bfn.  Coefficient  Atom+Function         Bfn.  Coefficient  Atom+Function  
  ----- ------------  ---------------      ----- ------------  ---------------
   117      1.615066  15 H  s               123      1.588644  17 H  s         
   111     -1.300282  13 H  s               107      1.289076  12 C  py        
   126     -1.267239  18 H  s                84     -1.010910   8 C  pz        
    47      0.900850   4 C  py               87     -0.886074   9 H  s         
    33      0.841826   3 H  s                90     -0.837019  10 H  s         
 
 Vector   36  Occ=0.000000D+00  E= 1.308311D-01
              MO Center= -2.6D-01,  4.0D-01, -9.0D-01, r^2= 1.2D+01
   Bfn.  Coefficient  Atom+Function         Bfn.  Coefficient  Atom+Function  
  ----- ------------  ---------------      ----- ------------  ---------------
    33      1.850127   3 H  s                51     -1.841731   5 H  s         
   114     -1.334659  14 H  s               120      1.325931  16 H  s         
    30     -1.285780   2 C  pz                6     -0.908287   1 C  s         
    21      0.882523   2 C  s               126     -0.873400  18 H  s         
   111      0.868610  13 H  s                15      0.863137   1 C  pz        
 
 Vector   37  Occ=0.000000D+00  E= 1.356804D-01
              MO Center=  1.0D-01, -2.2D-01,  5.7D-01, r^2= 1.2D+01
   Bfn.  Coefficient  Atom+Function         Bfn.  Coefficient  Atom+Function  
  ----- ------------  ---------------      ----- ------------  ---------------
    39      2.244370   4 C  s                57     -2.197600   6 C  s         
    82     -1.261524   8 C  px               65     -1.085167   6 C  py        
     6     -1.045874   1 C  s               106     -1.034262  12 C  px        
    21      1.012904   2 C  s                47     -0.996785   4 C  py        
    87      0.785483   9 H  s               114     -0.747341  14 H  s         
 
 Vector   38  Occ=0.000000D+00  E= 1.391767D-01
              MO Center=  9.3D-02, -9.4D-02,  1.2D-01, r^2= 1.0D+01
   Bfn.  Coefficient  Atom+Function         Bfn.  Coefficient  Atom+Function  
  ----- ------------  ---------------      ----- ------------  ---------------
    57      1.570558   6 C  s               106      1.513728  12 C  px        
    39      1.495315   4 C  s                46     -1.429519   4 C  px        
    65      1.377657   6 C  py               82     -1.300495   8 C  px        
    21     -1.291234   2 C  s                 6     -1.221926   1 C  s         
    90      1.021077  10 H  s                87      0.999219   9 H  s         
 
 Vector   39  Occ=0.000000D+00  E= 1.578940D-01
              MO Center=  1.4D-01, -2.1D-01,  4.7D-01, r^2= 8.3D+00
   Bfn.  Coefficient  Atom+Function         Bfn.  Coefficient  Atom+Function  
  ----- ------------  ---------------      ----- ------------  ---------------
    69      2.239589   7 H  s                93     -2.243546  11 H  s         
    66      1.593894   6 C  pz               46     -1.468714   4 C  px        
    21      1.214494   2 C  s                 6     -1.191245   1 C  s         
    84      0.842887   8 C  pz              108     -0.845245  12 C  pz        
    48     -0.768969   4 C  pz               64     -0.736549   6 C  px        
 
 Vector   40  Occ=0.000000D+00  E= 1.663673D-01
              MO Center=  3.0D-02, -3.1D-02,  7.3D-02, r^2= 8.1D+00
   Bfn.  Coefficient  Atom+Function         Bfn.  Coefficient  Atom+Function  
  ----- ------------  ---------------      ----- ------------  ---------------
    48      1.679067   4 C  pz               64      1.655496   6 C  px        
     6      1.424414   1 C  s                21      1.387442   2 C  s         
    15      1.147741   1 C  pz              120     -1.135504  16 H  s         
   114     -1.124240  14 H  s                46     -0.982282   4 C  px        
    82     -0.951045   8 C  px               29     -0.902795   2 C  py        
 
 Vector   41  Occ=0.000000D+00  E= 1.801510D-01
              MO Center=  1.9D-01, -2.8D-01,  6.5D-01, r^2= 1.1D+01
   Bfn.  Coefficient  Atom+Function         Bfn.  Coefficient  Atom+Function  
  ----- ------------  ---------------      ----- ------------  ---------------
    82      1.116088   8 C  px               69     -1.009295   7 H  s         
    93      1.009730  11 H  s               106      0.952273  12 C  px        
    30      0.827705   2 C  pz               65     -0.747719   6 C  py        
    33     -0.726261   3 H  s                51      0.719350   5 H  s         
    47     -0.696632   4 C  py                6     -0.589939   1 C  s         
 
 Vector   42  Occ=0.000000D+00  E= 1.939333D-01
              MO Center=  3.5D-02, -5.7D-02,  1.4D-01, r^2= 1.2D+01
   Bfn.  Coefficient  Atom+Function         Bfn.  Coefficient  Atom+Function  
  ----- ------------  ---------------      ----- ------------  ---------------
   107      1.340270  12 C  py               83     -1.123014   8 C  py        
    65     -0.903895   6 C  py               48      0.857724   4 C  pz        
    82     -0.776431   8 C  px              111     -0.695433  13 H  s         
   126     -0.695651  18 H  s                21      0.674944   2 C  s         
   106      0.639565  12 C  px                6      0.630054   1 C  s         
 
 Vector   43  Occ=0.000000D+00  E= 2.105674D-01
              MO Center=  6.5D-02, -9.8D-02,  2.4D-01, r^2= 9.2D+00
   Bfn.  Coefficient  Atom+Function         Bfn.  Coefficient  Atom+Function  
  ----- ------------  ---------------      ----- ------------  ---------------
    30      3.194998   2 C  pz               15     -2.739874   1 C  pz        
    48     -2.624762   4 C  pz                6     -2.546635   1 C  s         
    21      2.540409   2 C  s                33     -2.440099   3 H  s         
    51      2.446309   5 H  s                64      2.340850   6 C  px        
    65     -1.698057   6 C  py               14      1.582365   1 C  py        
 
 Vector   44  Occ=0.000000D+00  E= 2.201388D-01
              MO Center=  9.0D-02, -1.3D-01,  2.5D-01, r^2= 1.3D+01
   Bfn.  Coefficient  Atom+Function         Bfn.  Coefficient  Atom+Function  
  ----- ------------  ---------------      ----- ------------  ---------------
    83     -1.525329   8 C  py               30      1.460906   2 C  pz        
   107     -1.358772  12 C  py               14      1.008610   1 C  py        
   108     -0.830940  12 C  pz               33     -0.801035   3 H  s         
    51      0.794321   5 H  s                69     -0.794199   7 H  s         
    93      0.789658  11 H  s                15     -0.763394   1 C  pz        
 
 Vector   45  Occ=0.000000D+00  E= 2.316801D-01
              MO Center=  6.6D-02, -9.8D-02,  2.4D-01, r^2= 1.1D+01
   Bfn.  Coefficient  Atom+Function         Bfn.  Coefficient  Atom+Function  
  ----- ------------  ---------------      ----- ------------  ---------------
   108      1.323467  12 C  pz               83     -1.108972   8 C  py        
    66     -0.960056   6 C  pz               48     -0.721431   4 C  pz        
    47      0.622535   4 C  py               84      0.618065   8 C  pz        
    29     -0.579147   2 C  py               15      0.542175   1 C  pz        
    82      0.478228   8 C  px               39     -0.353051   4 C  s         
 
 Vector   46  Occ=0.000000D+00  E= 2.398540D-01
              MO Center= -7.7D-03,  1.5D-02, -5.1D-02, r^2= 8.9D+00
   Bfn.  Coefficient  Atom+Function         Bfn.  Coefficient  Atom+Function  
  ----- ------------  ---------------      ----- ------------  ---------------
   108      1.048994  12 C  pz               84      0.983888   8 C  pz        
    29      0.894352   2 C  py               15     -0.883470   1 C  pz        
    82      0.732664   8 C  px                6     -0.681851   1 C  s         
    21     -0.663205   2 C  s               107     -0.659268  12 C  py        
   114      0.609655  14 H  s               120      0.607869  16 H  s         
 
 Vector   47  Occ=0.000000D+00  E= 2.491760D-01
              MO Center= -8.5D-02,  1.2D-01, -2.8D-01, r^2= 7.7D+00
   Bfn.  Coefficient  Atom+Function         Bfn.  Coefficient  Atom+Function  
  ----- ------------  ---------------      ----- ------------  ---------------
     6      2.131946   1 C  s                21     -2.136687   2 C  s         
    30     -2.078148   2 C  pz               33      1.723995   3 H  s         
    51     -1.723109   5 H  s                13      1.640619   1 C  px        
    14     -1.560626   1 C  py               28      0.898304   2 C  px        
    84      0.571022   8 C  pz              108     -0.573618  12 C  pz        
 
 Vector   48  Occ=0.000000D+00  E= 2.777606D-01
              MO Center= -1.4D-01,  2.2D-01, -4.1D-01, r^2= 7.5D+00
   Bfn.  Coefficient  Atom+Function         Bfn.  Coefficient  Atom+Function  
  ----- ------------  ---------------      ----- ------------  ---------------
    13      1.521873   1 C  px               28     -1.460158   2 C  px        
    46     -1.428064   4 C  px               64      1.223910   6 C  px        
    84     -1.185938   8 C  pz              107      1.007770  12 C  py        
    66     -0.891323   6 C  pz              117      0.677564  15 H  s         
   123      0.660777  17 H  s               106     -0.624327  12 C  px        
 
 Vector   49  Occ=0.000000D+00  E= 2.818549D-01
              MO Center= -1.6D-01,  2.4D-01, -6.1D-01, r^2= 7.5D+00
   Bfn.  Coefficient  Atom+Function         Bfn.  Coefficient  Atom+Function  
  ----- ------------  ---------------      ----- ------------  ---------------
    29      3.216895   2 C  py               14      2.899051   1 C  py        
    15      2.126184   1 C  pz               69     -2.103308   7 H  s         
    48      2.091936   4 C  pz               66     -2.074644   6 C  pz        
    93      2.078389  11 H  s                 6     -1.830633   1 C  s         
    21      1.836659   2 C  s                28     -1.510987   2 C  px        
 
 Vector   50  Occ=0.000000D+00  E= 2.985663D-01
              MO Center= -2.8D-02,  3.4D-02, -8.5D-02, r^2= 6.9D+00
   Bfn.  Coefficient  Atom+Function         Bfn.  Coefficient  Atom+Function  
  ----- ------------  ---------------      ----- ------------  ---------------
    65      1.270719   6 C  py               28     -1.046369   2 C  px        
    47     -0.957626   4 C  py               48     -0.872498   4 C  pz        
    15     -0.823098   1 C  pz               51     -0.767960   5 H  s         
    33     -0.757427   3 H  s                13      0.750476   1 C  px        
   123      0.609887  17 H  s               117      0.602872  15 H  s         
 
 Vector   51  Occ=0.000000D+00  E= 3.384639D-01
              MO Center=  7.4D-02, -8.4D-02,  1.9D-01, r^2= 8.4D+00
   Bfn.  Coefficient  Atom+Function         Bfn.  Coefficient  Atom+Function  
  ----- ------------  ---------------      ----- ------------  ---------------
    47      2.802640   4 C  py               66      2.166137   6 C  pz        
    65      1.917743   6 C  py               30     -1.745511   2 C  pz        
    15      1.603308   1 C  pz               83     -1.313873   8 C  py        
   108     -1.211265  12 C  pz               90      1.179129  10 H  s         
    87     -1.172796   9 H  s                14     -1.133541   1 C  py        
 
 Vector   52  Occ=0.000000D+00  E= 3.521771D-01
              MO Center= -6.8D-02,  8.3D-02, -1.4D-01, r^2= 6.6D+00
   Bfn.  Coefficient  Atom+Function         Bfn.  Coefficient  Atom+Function  
  ----- ------------  ---------------      ----- ------------  ---------------
    64     -1.094317   6 C  px               46      1.056956   4 C  px        
    75      0.854415   8 C  s                99      0.836350  12 C  s         
    14      0.637345   1 C  py               39     -0.615400   4 C  s         
    86     -0.587927   9 H  s                89     -0.575464  10 H  s         
    30     -0.571092   2 C  pz               57     -0.561787   6 C  s         
 
 Vector   53  Occ=0.000000D+00  E= 3.636124D-01
              MO Center= -1.9D-02,  2.8D-02, -6.6D-02, r^2= 8.9D+00
   Bfn.  Coefficient  Atom+Function         Bfn.  Coefficient  Atom+Function  
  ----- ------------  ---------------      ----- ------------  ---------------
    66      2.597050   6 C  pz               46      1.840339   4 C  px        
    29     -1.788534   2 C  py               93     -1.691564  11 H  s         
    69     -1.650744   7 H  s                14      1.618532   1 C  py        
    47     -1.402226   4 C  py              106     -1.353575  12 C  px        
    48      1.293522   4 C  pz               83      1.234952   8 C  py        
 
 Vector   54  Occ=0.000000D+00  E= 3.746471D-01
              MO Center= -3.8D-02,  6.0D-02, -1.7D-01, r^2= 8.7D+00
   Bfn.  Coefficient  Atom+Function         Bfn.  Coefficient  Atom+Function  
  ----- ------------  ---------------      ----- ------------  ---------------
    47      2.801909   4 C  py                6      2.423038   1 C  s         
    21     -2.434303   2 C  s                29     -2.183073   2 C  py        
    28      2.126104   2 C  px               66      2.034514   6 C  pz        
    15     -1.979033   1 C  pz               65      1.948861   6 C  py        
    13      1.759099   1 C  px               14     -1.726156   1 C  py        
 
 Vector   55  Occ=0.000000D+00  E= 3.871374D-01
              MO Center= -9.7D-02,  1.3D-01, -2.4D-01, r^2= 8.8D+00
   Bfn.  Coefficient  Atom+Function         Bfn.  Coefficient  Atom+Function  
  ----- ------------  ---------------      ----- ------------  ---------------
    64      1.967367   6 C  px               14      1.815920   1 C  py        
    28     -1.786821   2 C  px              108     -1.751987  12 C  pz        
    84     -1.618665   8 C  pz               46     -1.550263   4 C  px        
    13      1.487890   1 C  px              114     -1.438508  14 H  s         
    29     -1.419145   2 C  py              120     -1.404146  16 H  s         
 
 Vector   56  Occ=0.000000D+00  E= 3.902140D-01
              MO Center= -1.3D-01,  2.0D-01, -4.8D-01, r^2= 9.2D+00
   Bfn.  Coefficient  Atom+Function         Bfn.  Coefficient  Atom+Function  
  ----- ------------  ---------------      ----- ------------  ---------------
     6      5.453694   1 C  s                21     -5.418644   2 C  s         
    14     -5.197984   1 C  py               30     -4.730646   2 C  pz        
    13      4.665679   1 C  px               29     -3.984892   2 C  py        
    28      3.729186   2 C  px               66      3.694136   6 C  pz        
    51     -3.202013   5 H  s                33      3.173279   3 H  s         
 
 Vector   57  Occ=0.000000D+00  E= 3.958336D-01
              MO Center=  8.0D-02, -1.2D-01,  2.4D-01, r^2= 9.8D+00
   Bfn.  Coefficient  Atom+Function         Bfn.  Coefficient  Atom+Function  
  ----- ------------  ---------------      ----- ------------  ---------------
    15      2.741183   1 C  pz               64     -2.555237   6 C  px        
    46     -2.253996   4 C  px               29      2.027923   2 C  py        
    82     -1.965169   8 C  px              106     -1.850223  12 C  px        
    48      1.612609   4 C  pz               30     -1.403748   2 C  pz        
    65      1.227526   6 C  py               28     -1.217951   2 C  px        
 
 Vector   58  Occ=0.000000D+00  E= 4.127878D-01
              MO Center= -2.4D-02, -1.3D-02,  1.4D-01, r^2= 9.1D+00
   Bfn.  Coefficient  Atom+Function         Bfn.  Coefficient  Atom+Function  
  ----- ------------  ---------------      ----- ------------  ---------------
    64      1.884139   6 C  px               33      1.823470   3 H  s         
   111     -1.794794  13 H  s                51      1.773344   5 H  s         
   126     -1.695571  18 H  s                69     -1.582572   7 H  s         
    47     -1.497699   4 C  py               93     -1.492288  11 H  s         
    48      1.469180   4 C  pz               30      1.425859   2 C  pz        
 
 Vector   59  Occ=0.000000D+00  E= 4.158413D-01
              MO Center=  1.2D-01, -1.2D-01,  1.8D-01, r^2= 9.7D+00
   Bfn.  Coefficient  Atom+Function         Bfn.  Coefficient  Atom+Function  
  ----- ------------  ---------------      ----- ------------  ---------------
    93     -2.485206  11 H  s                69      2.453069   7 H  s         
    15     -1.556361   1 C  pz               48     -1.510038   4 C  pz        
   126     -1.451214  18 H  s                90      1.346286  10 H  s         
    83      1.320512   8 C  py              111      1.323257  13 H  s         
    87     -1.314185   9 H  s               120      1.292805  16 H  s         
 
 Vector   60  Occ=0.000000D+00  E= 4.200105D-01
              MO Center=  1.0D-01, -1.4D-01,  3.0D-01, r^2= 1.4D+01
   Bfn.  Coefficient  Atom+Function         Bfn.  Coefficient  Atom+Function  
  ----- ------------  ---------------      ----- ------------  ---------------
    15      5.894772   1 C  pz               29      3.682058   2 C  py        
    30     -3.393869   2 C  pz               28     -3.129996   2 C  px        
    39     -2.764153   4 C  s                57      2.764089   6 C  s         
   123      2.537533  17 H  s               117     -2.517650  15 H  s         
    33      2.244798   3 H  s                51     -2.223053   5 H  s         
 
 Vector   61  Occ=0.000000D+00  E= 4.292257D-01
              MO Center= -3.9D-03, -1.0D-02, -7.4D-03, r^2= 8.3D+00
   Bfn.  Coefficient  Atom+Function         Bfn.  Coefficient  Atom+Function  
  ----- ------------  ---------------      ----- ------------  ---------------
    47      3.404238   4 C  py               30      3.296700   2 C  pz        
    66     -2.599535   6 C  pz               65     -2.531731   6 C  py        
    90     -2.538807  10 H  s                51      2.501314   5 H  s         
    87     -2.506881   9 H  s                33      2.475527   3 H  s         
    14     -2.220693   1 C  py               13      1.941256   1 C  px        
 
 Vector   62  Occ=0.000000D+00  E= 4.383650D-01
              MO Center=  1.4D-01, -2.2D-01,  5.0D-01, r^2= 1.3D+01
   Bfn.  Coefficient  Atom+Function         Bfn.  Coefficient  Atom+Function  
  ----- ------------  ---------------      ----- ------------  ---------------
   117      2.337145  15 H  s               123      2.327524  17 H  s         
   107      1.788440  12 C  py               84     -1.573441   8 C  pz        
   111     -1.508878  13 H  s               126     -1.500717  18 H  s         
    83     -1.122117   8 C  py               21     -1.033629   2 C  s         
     6     -1.011051   1 C  s                66     -0.858251   6 C  pz        
 
 Vector   63  Occ=0.000000D+00  E= 4.533168D-01
              MO Center= -8.3D-02,  1.3D-01, -2.9D-01, r^2= 1.3D+01
   Bfn.  Coefficient  Atom+Function         Bfn.  Coefficient  Atom+Function  
  ----- ------------  ---------------      ----- ------------  ---------------
   114      2.145615  14 H  s               120      2.140432  16 H  s         
   108      1.317365  12 C  pz               33     -1.279283   3 H  s         
    51     -1.266616   5 H  s                83     -1.015235   8 C  py        
   113     -0.878431  14 H  s               119     -0.875938  16 H  s         
   126     -0.875220  18 H  s               111     -0.859102  13 H  s         
 
 Vector   64  Occ=0.000000D+00  E= 4.631762D-01
              MO Center= -4.6D-02,  6.0D-02, -1.3D-01, r^2= 1.0D+01
   Bfn.  Coefficient  Atom+Function         Bfn.  Coefficient  Atom+Function  
  ----- ------------  ---------------      ----- ------------  ---------------
    29      2.463471   2 C  py               28     -2.161755   2 C  px        
    14      2.148946   1 C  py               15      1.977311   1 C  pz        
    13     -1.942948   1 C  px               33     -1.747256   3 H  s         
    51      1.719998   5 H  s               111     -1.639111  13 H  s         
   126      1.637002  18 H  s                21      1.261476   2 C  s         
 
 Vector   65  Occ=0.000000D+00  E= 4.746187D-01
              MO Center=  1.6D-01,  1.1D-01, -7.6D-01, r^2= 1.0D+01
   Bfn.  Coefficient  Atom+Function         Bfn.  Coefficient  Atom+Function  
  ----- ------------  ---------------      ----- ------------  ---------------
    15      5.923336   1 C  pz               30     -5.208767   2 C  pz        
    33      3.876934   3 H  s                51     -3.829805   5 H  s         
    29      2.661492   2 C  py               39     -2.162352   4 C  s         
    28     -1.976808   2 C  px               14     -1.902093   1 C  py        
    21      1.833242   2 C  s               114     -1.538569  14 H  s         
 
 Vector   66  Occ=0.000000D+00  E= 4.754735D-01
              MO Center= -2.4D-01,  1.5D-02,  4.5D-01, r^2= 8.2D+00
   Bfn.  Coefficient  Atom+Function         Bfn.  Coefficient  Atom+Function  
  ----- ------------  ---------------      ----- ------------  ---------------
    57      2.303314   6 C  s                87     -2.164702   9 H  s         
    90     -2.024500  10 H  s                64     -1.987016   6 C  px        
    47      1.945213   4 C  py               39      1.609915   4 C  s         
    29      1.417115   2 C  py                6     -1.371111   1 C  s         
    30     -1.184848   2 C  pz               46      1.114644   4 C  px        
 
 Vector   67  Occ=0.000000D+00  E= 4.890919D-01
              MO Center=  4.6D-02, -8.2D-02,  2.2D-01, r^2= 1.2D+01
   Bfn.  Coefficient  Atom+Function         Bfn.  Coefficient  Atom+Function  
  ----- ------------  ---------------      ----- ------------  ---------------
    15      4.759167   1 C  pz               29      3.330131   2 C  py        
    30     -2.486867   2 C  pz                6     -2.370735   1 C  s         
    21      2.376035   2 C  s                75     -2.343636   8 C  s         
    28     -2.330334   2 C  px               99      2.303227  12 C  s         
    33      1.632743   3 H  s                51     -1.633690   5 H  s         
 
 Vector   68  Occ=0.000000D+00  E= 4.971582D-01
              MO Center=  1.6D-01, -2.2D-01,  5.0D-01, r^2= 1.1D+01
   Bfn.  Coefficient  Atom+Function         Bfn.  Coefficient  Atom+Function  
  ----- ------------  ---------------      ----- ------------  ---------------
    99      2.580536  12 C  s                75      2.542982   8 C  s         
    39     -1.854402   4 C  s                57     -1.782154   6 C  s         
    98     -1.427833  12 C  s                74     -1.412068   8 C  s         
    69      1.256893   7 H  s                93      1.219471  11 H  s         
   111     -1.032891  13 H  s               114     -1.033318  14 H  s         
 
 Vector   69  Occ=0.000000D+00  E= 5.098418D-01
              MO Center=  1.6D-01, -2.4D-01,  5.4D-01, r^2= 6.5D+00
   Bfn.  Coefficient  Atom+Function         Bfn.  Coefficient  Atom+Function  
  ----- ------------  ---------------      ----- ------------  ---------------
    30      3.890428   2 C  pz               57     -3.774512   6 C  s         
    39      3.699441   4 C  s                69     -3.308534   7 H  s         
    93      3.322777  11 H  s                15     -3.137859   1 C  pz        
    51      2.151774   5 H  s                33     -2.138471   3 H  s         
    14      2.033655   1 C  py               46      1.741646   4 C  px        
 
 Vector   70  Occ=0.000000D+00  E= 5.182487D-01
              MO Center= -3.7D-02,  5.1D-02, -1.1D-01, r^2= 7.6D+00
   Bfn.  Coefficient  Atom+Function         Bfn.  Coefficient  Atom+Function  
  ----- ------------  ---------------      ----- ------------  ---------------
    47      1.808059   4 C  py               65     -1.616994   6 C  py        
     5     -1.420148   1 C  s                20     -1.418131   2 C  s         
    30      1.374336   2 C  pz               39      1.200390   4 C  s         
    66     -1.173282   6 C  pz               14     -1.109964   1 C  py        
    57      1.098489   6 C  s                21      1.006538   2 C  s         
 
 Vector   71  Occ=0.000000D+00  E= 5.460663D-01
              MO Center= -1.4D-01,  1.9D-01, -4.0D-01, r^2= 9.3D+00
   Bfn.  Coefficient  Atom+Function         Bfn.  Coefficient  Atom+Function  
  ----- ------------  ---------------      ----- ------------  ---------------
     6      4.559194   1 C  s                21      4.455786   2 C  s         
    66      3.108424   6 C  pz               13     -2.623753   1 C  px        
    30     -2.570287   2 C  pz               47     -2.520295   4 C  py        
    75      2.530036   8 C  s                14      2.493142   1 C  py        
    99      2.478729  12 C  s                28      2.012048   2 C  px        
 
 Vector   72  Occ=0.000000D+00  E= 5.558032D-01
              MO Center= -8.9D-03,  3.6D-02, -1.2D-01, r^2= 6.6D+00
   Bfn.  Coefficient  Atom+Function         Bfn.  Coefficient  Atom+Function  
  ----- ------------  ---------------      ----- ------------  ---------------
    21     -2.726541   2 C  s                93      2.679157  11 H  s         
    69     -2.612803   7 H  s                 6      2.544091   1 C  s         
    48      2.329154   4 C  pz               15      1.880113   1 C  pz        
    99     -1.874606  12 C  s                75      1.802082   8 C  s         
    65      1.711338   6 C  py               29      1.664245   2 C  py        
 
 Vector   73  Occ=0.000000D+00  E= 6.152908D-01
              MO Center= -9.6D-02,  1.4D-01, -3.3D-01, r^2= 7.1D+00
   Bfn.  Coefficient  Atom+Function         Bfn.  Coefficient  Atom+Function  
  ----- ------------  ---------------      ----- ------------  ---------------
    15      6.179550   1 C  pz               29      4.923683   2 C  py        
     6     -4.236240   1 C  s                21      4.202777   2 C  s         
    75     -4.097674   8 C  s                99      4.104125  12 C  s         
    28     -3.821688   2 C  px               48      2.189832   4 C  pz        
    30     -1.857154   2 C  pz               93      1.828266  11 H  s         
 
 Vector   74  Occ=0.000000D+00  E= 6.572492D-01
              MO Center= -1.5D-01,  2.2D-01, -5.0D-01, r^2= 7.2D+00
   Bfn.  Coefficient  Atom+Function         Bfn.  Coefficient  Atom+Function  
  ----- ------------  ---------------      ----- ------------  ---------------
    30      7.190333   2 C  pz               15     -5.901077   1 C  pz        
    14      3.695073   1 C  py               33     -3.616578   3 H  s         
    51      3.629365   5 H  s                39      3.507281   4 C  s         
    57     -3.483045   6 C  s                13     -2.829574   1 C  px        
    75     -2.495848   8 C  s                99      2.502824  12 C  s         
 
 Vector   75  Occ=0.000000D+00  E= 6.873502D-01
              MO Center= -3.0D-02,  4.4D-02, -9.3D-02, r^2= 8.6D+00
   Bfn.  Coefficient  Atom+Function         Bfn.  Coefficient  Atom+Function  
  ----- ------------  ---------------      ----- ------------  ---------------
    21      4.176510   2 C  s                 6      4.144209   1 C  s         
    75     -3.821335   8 C  s                99     -3.820433  12 C  s         
    39     -2.747038   4 C  s                57     -2.726536   6 C  s         
    15      1.732975   1 C  pz               28      1.586988   2 C  px        
    20     -1.493848   2 C  s                48      1.494895   4 C  pz        
 
 Vector   76  Occ=0.000000D+00  E= 7.255494D-01
              MO Center=  5.9D-02, -8.3D-02,  1.7D-01, r^2= 8.3D+00
   Bfn.  Coefficient  Atom+Function         Bfn.  Coefficient  Atom+Function  
  ----- ------------  ---------------      ----- ------------  ---------------
    57      8.633057   6 C  s                39      8.569133   4 C  s         
    75     -5.764259   8 C  s                99     -5.792565  12 C  s         
    38     -2.014844   4 C  s                56     -2.024362   6 C  s         
    30     -1.799941   2 C  pz               65      1.692248   6 C  py        
    21     -1.668837   2 C  s                 6     -1.644920   1 C  s         
 
 Vector   77  Occ=0.000000D+00  E= 7.784478D-01
              MO Center= -2.7D-02,  4.1D-02, -8.4D-02, r^2= 7.1D+00
   Bfn.  Coefficient  Atom+Function         Bfn.  Coefficient  Atom+Function  
  ----- ------------  ---------------      ----- ------------  ---------------
     6     12.071928   1 C  s                21    -12.064830   2 C  s         
    39     -9.386171   4 C  s                57      9.376626   6 C  s         
    30     -9.247994   2 C  pz               15      7.513606   1 C  pz        
    14     -4.984575   1 C  py               33      4.152262   3 H  s         
    51     -4.154455   5 H  s                13      3.467246   1 C  px        
 
 Vector   78  Occ=0.000000D+00  E= 7.970960D-01
              MO Center= -4.0D-02,  5.4D-02, -1.1D-01, r^2= 7.9D+00
   Bfn.  Coefficient  Atom+Function         Bfn.  Coefficient  Atom+Function  
  ----- ------------  ---------------      ----- ------------  ---------------
    39      9.600063   4 C  s                57     -9.585940   6 C  s         
    15     -5.947454   1 C  pz               29     -5.834969   2 C  py        
     6      5.292888   1 C  s                21     -5.282600   2 C  s         
    28      4.607524   2 C  px               75     -4.372703   8 C  s         
    99      4.337006  12 C  s                14     -3.355522   1 C  py        
 
 Vector   79  Occ=0.000000D+00  E= 1.368326D+00
              MO Center= -4.1D-02,  6.9D-02, -1.6D-01, r^2= 4.5D+00
   Bfn.  Coefficient  Atom+Function         Bfn.  Coefficient  Atom+Function  
  ----- ------------  ---------------      ----- ------------  ---------------
    45      1.384087   4 C  pz               48     -1.115122   4 C  pz        
    12      1.062367   1 C  pz               61      1.026195   6 C  px        
    62     -0.945380   6 C  py               15     -0.898804   1 C  pz        
    65      0.901216   6 C  py               26     -0.854926   2 C  py        
    75     -0.740289   8 C  s                99     -0.735119  12 C  s         
 
 Vector   80  Occ=0.000000D+00  E= 1.389621D+00
              MO Center= -1.6D-01,  2.6D-01, -5.9D-01, r^2= 3.5D+00
   Bfn.  Coefficient  Atom+Function         Bfn.  Coefficient  Atom+Function  
  ----- ------------  ---------------      ----- ------------  ---------------
    25      1.024212   2 C  px               10      0.983928   1 C  px        
     7     -0.711512   1 C  px               22     -0.694277   2 C  px        
    81      0.670470   8 C  pz               28     -0.585934   2 C  px        
   103     -0.579534  12 C  px               15      0.500594   1 C  pz        
    30     -0.428752   2 C  pz                8     -0.411900   1 C  py        
 
 Vector   81  Occ=0.000000D+00  E= 1.393217D+00
              MO Center=  4.7D-02, -9.8D-02,  2.2D-01, r^2= 6.7D+00
   Bfn.  Coefficient  Atom+Function         Bfn.  Coefficient  Atom+Function  
  ----- ------------  ---------------      ----- ------------  ---------------
    57      1.407754   6 C  s                39      1.393072   4 C  s         
    79     -1.395529   8 C  px               43     -1.349624   4 C  px        
   103      1.298796  12 C  px               75     -1.159660   8 C  s         
    99     -1.145058  12 C  s                61      1.120221   6 C  px        
    46      0.749110   4 C  px               82      0.740377   8 C  px        
 
 Vector   82  Occ=0.000000D+00  E= 1.424943D+00
              MO Center= -8.8D-02,  1.5D-01, -3.7D-01, r^2= 4.4D+00
   Bfn.  Coefficient  Atom+Function         Bfn.  Coefficient  Atom+Function  
  ----- ------------  ---------------      ----- ------------  ---------------
    29      1.731602   2 C  py               15      1.437406   1 C  pz        
    26     -1.396709   2 C  py               11     -1.335725   1 C  py        
    14      1.321297   1 C  py               64     -1.214991   6 C  px        
    28     -1.187316   2 C  px               48      0.968724   4 C  pz        
    46     -0.955619   4 C  px               12     -0.903839   1 C  pz        
 
 Vector   83  Occ=0.000000D+00  E= 1.430864D+00
              MO Center= -1.0D-01,  1.5D-01, -3.6D-01, r^2= 5.9D+00
   Bfn.  Coefficient  Atom+Function         Bfn.  Coefficient  Atom+Function  
  ----- ------------  ---------------      ----- ------------  ---------------
    25      1.168432   2 C  px               81     -1.170839   8 C  pz        
    10     -0.985744   1 C  px               84      0.935406   8 C  pz        
    13      0.844190   1 C  px               28     -0.826377   2 C  px        
   123     -0.799975  17 H  s               117     -0.787010  15 H  s         
   103     -0.768507  12 C  px              104      0.682066  12 C  py        
 
 Vector   84  Occ=0.000000D+00  E= 1.443255D+00
              MO Center=  9.3D-02, -1.3D-01,  2.5D-01, r^2= 6.6D+00
   Bfn.  Coefficient  Atom+Function         Bfn.  Coefficient  Atom+Function  
  ----- ------------  ---------------      ----- ------------  ---------------
    39      1.274537   4 C  s                57     -1.278434   6 C  s         
    80     -1.034623   8 C  py               47      1.014163   4 C  py        
    61     -0.939257   6 C  px               15     -0.918728   1 C  pz        
    75     -0.912214   8 C  s                99      0.910806  12 C  s         
    66      0.891593   6 C  pz              103     -0.884916  12 C  px        
 
 Vector   85  Occ=0.000000D+00  E= 1.453985D+00
              MO Center=  5.3D-02, -8.8D-02,  2.0D-01, r^2= 8.0D+00
   Bfn.  Coefficient  Atom+Function         Bfn.  Coefficient  Atom+Function  
  ----- ------------  ---------------      ----- ------------  ---------------
    79      1.348546   8 C  px              103      1.144146  12 C  px        
    75      1.000693   8 C  s                99     -0.984460  12 C  s         
   105     -0.951797  12 C  pz               43      0.941878   4 C  px        
    26      0.922224   2 C  py               39     -0.904813   4 C  s         
    57      0.878209   6 C  s               120      0.831211  16 H  s         
 
 Vector   86  Occ=0.000000D+00  E= 1.468373D+00
              MO Center=  4.4D-02, -9.5D-02,  2.6D-01, r^2= 7.1D+00
   Bfn.  Coefficient  Atom+Function         Bfn.  Coefficient  Atom+Function  
  ----- ------------  ---------------      ----- ------------  ---------------
    47      1.338183   4 C  py               80     -1.150010   8 C  py        
    66     -1.122449   6 C  pz               87     -1.046470   9 H  s         
    90     -1.045138  10 H  s                69      0.862370   7 H  s         
    44     -0.841672   4 C  py               93      0.842590  11 H  s         
   105      0.798940  12 C  pz               83      0.769523   8 C  py        
 
 Vector   87  Occ=0.000000D+00  E= 1.502889D+00
              MO Center=  8.9D-02, -1.1D-01,  2.4D-01, r^2= 5.7D+00
   Bfn.  Coefficient  Atom+Function         Bfn.  Coefficient  Atom+Function  
  ----- ------------  ---------------      ----- ------------  ---------------
    30      3.079615   2 C  pz                6     -2.700418   1 C  s         
    21      2.710939   2 C  s                39      2.521590   4 C  s         
    57     -2.513089   6 C  s                14      2.364914   1 C  py        
    13     -2.021137   1 C  px               45     -1.712599   4 C  pz        
    93      1.701553  11 H  s                69     -1.693018   7 H  s         
 
 Vector   88  Occ=0.000000D+00  E= 1.515373D+00
              MO Center= -5.2D-02,  5.9D-02, -1.1D-01, r^2= 6.5D+00
   Bfn.  Coefficient  Atom+Function         Bfn.  Coefficient  Atom+Function  
  ----- ------------  ---------------      ----- ------------  ---------------
   104      1.148377  12 C  py               80     -1.091906   8 C  py        
    30      1.068741   2 C  pz               14     -1.029290   1 C  py        
   107     -0.971217  12 C  py               11      0.861956   1 C  py        
    51      0.860381   5 H  s                33      0.793449   3 H  s         
    83      0.777747   8 C  py              117     -0.775572  15 H  s         
 
 Vector   89  Occ=0.000000D+00  E= 1.538278D+00
              MO Center= -7.8D-02,  1.2D-01, -2.6D-01, r^2= 5.5D+00
   Bfn.  Coefficient  Atom+Function         Bfn.  Coefficient  Atom+Function  
  ----- ------------  ---------------      ----- ------------  ---------------
    30      1.351322   2 C  pz               33      1.184874   3 H  s         
    51      1.187334   5 H  s                13      1.126114   1 C  px        
    15      1.024090   1 C  pz               10     -0.931077   1 C  px        
   105      0.923709  12 C  pz               79      0.860000   8 C  px        
    82     -0.845826   8 C  px               27     -0.821703   2 C  pz        
 
 Vector   90  Occ=0.000000D+00  E= 1.570656D+00
              MO Center=  1.0D-01, -1.4D-01,  3.0D-01, r^2= 7.0D+00
   Bfn.  Coefficient  Atom+Function         Bfn.  Coefficient  Atom+Function  
  ----- ------------  ---------------      ----- ------------  ---------------
    15      1.458497   1 C  pz               48      1.447217   4 C  pz        
    62     -1.220091   6 C  py               65      1.183581   6 C  py        
    29      1.127251   2 C  py              104      1.097573  12 C  py        
    45     -1.084231   4 C  pz               69     -0.987858   7 H  s         
    93      0.985299  11 H  s                66     -0.979341   6 C  pz        
 
 Vector   91  Occ=0.000000D+00  E= 1.615573D+00
              MO Center=  5.2D-02, -8.5D-02,  2.0D-01, r^2= 7.0D+00
   Bfn.  Coefficient  Atom+Function         Bfn.  Coefficient  Atom+Function  
  ----- ------------  ---------------      ----- ------------  ---------------
    84      1.192348   8 C  pz               30      1.185966   2 C  pz        
    81     -1.127071   8 C  pz              108     -1.050944  12 C  pz        
    44     -1.037393   4 C  py               63     -1.032712   6 C  pz        
   105      0.980105  12 C  pz               15     -0.967518   1 C  pz        
   117     -0.903608  15 H  s               123      0.894776  17 H  s         
 
 Vector   92  Occ=0.000000D+00  E= 1.624023D+00
              MO Center=  4.4D-02, -6.3D-02,  1.5D-01, r^2= 5.3D+00
[...]
 Vector  106  Occ=0.000000D+00  E= 2.394591D+00
              MO Center=  1.1D-01, -2.1D-01,  2.0D-01, r^2= 4.9D+00
   Bfn.  Coefficient  Atom+Function         Bfn.  Coefficient  Atom+Function  
  ----- ------------  ---------------      ----- ------------  ---------------
     5      1.657569   1 C  s                47     -1.566140   4 C  py        
     4     -1.391585   1 C  s                20      1.250769   2 C  s         
    14      1.173525   1 C  py               19     -1.123342   2 C  s         
    66      1.122931   6 C  pz               89      1.054143  10 H  s         
    92     -1.002441  11 H  s                65      0.970070   6 C  py        
 
 Vector  107  Occ=0.000000D+00  E= 2.397495D+00
              MO Center=  3.0D-03,  2.7D-02,  2.4D-01, r^2= 7.1D+00
   Bfn.  Coefficient  Atom+Function         Bfn.  Coefficient  Atom+Function  
  ----- ------------  ---------------      ----- ------------  ---------------
    30      3.028565   2 C  pz               15     -2.142779   1 C  pz        
    20     -1.686051   2 C  s                21      1.666482   2 C  s         
     6     -1.539070   1 C  s                14      1.472423   1 C  py        
    13     -1.294545   1 C  px                5      1.286468   1 C  s         
    93      1.252795  11 H  s                69     -1.208253   7 H  s         
 
 Vector  108  Occ=0.000000D+00  E= 2.478653D+00
              MO Center=  7.1D-03, -9.8D-03,  2.0D-02, r^2= 5.2D+00
   Bfn.  Coefficient  Atom+Function         Bfn.  Coefficient  Atom+Function  
  ----- ------------  ---------------      ----- ------------  ---------------
    30      3.210887   2 C  pz               15     -2.457708   1 C  pz        
    14      1.792738   1 C  py               33     -1.414458   3 H  s         
    51      1.417283   5 H  s                13     -1.283440   1 C  px        
    68     -1.094511   7 H  s                92      1.098431  11 H  s         
    47     -0.895793   4 C  py               69      0.868550   7 H  s         
 
 Vector  109  Occ=0.000000D+00  E= 2.584219D+00
              MO Center= -2.2D-01,  3.2D-01, -7.3D-01, r^2= 3.8D+00
   Bfn.  Coefficient  Atom+Function         Bfn.  Coefficient  Atom+Function  
  ----- ------------  ---------------      ----- ------------  ---------------
     5      3.037689   1 C  s                20      3.047205   2 C  s         
     6     -2.903675   1 C  s                21     -2.909914   2 C  s         
     4     -2.271974   1 C  s                19     -2.278535   2 C  s         
    66     -1.398205   6 C  pz               47      1.220412   4 C  py        
    13      1.190043   1 C  px               30      1.171025   2 C  pz        
 
 Vector  110  Occ=0.000000D+00  E= 2.666298D+00
              MO Center=  5.0D-02, -8.3D-02,  2.1D-01, r^2= 6.7D+00
   Bfn.  Coefficient  Atom+Function         Bfn.  Coefficient  Atom+Function  
  ----- ------------  ---------------      ----- ------------  ---------------
    39      3.216267   4 C  s                57      3.198622   6 C  s         
    38     -2.478256   4 C  s                56     -2.470578   6 C  s         
    74     -2.248483   8 C  s                98     -2.230821  12 C  s         
     6     -2.156583   1 C  s                21     -2.148782   2 C  s         
    75      2.096050   8 C  s                99      2.073942  12 C  s         
 
 Vector  111  Occ=0.000000D+00  E= 2.693481D+00
              MO Center=  1.1D-01, -1.6D-01,  3.4D-01, r^2= 9.2D+00
   Bfn.  Coefficient  Atom+Function         Bfn.  Coefficient  Atom+Function  
  ----- ------------  ---------------      ----- ------------  ---------------
    75     -3.642241   8 C  s                99      3.656672  12 C  s         
    74      3.393309   8 C  s                98     -3.408654  12 C  s         
    73     -2.474005   8 C  s                97      2.484970  12 C  s         
    15      1.684588   1 C  pz               57      1.429965   6 C  s         
    39     -1.417190   4 C  s                 6      1.386510   1 C  s         
 
 Vector  112  Occ=0.000000D+00  E= 2.756189D+00
              MO Center= -2.4D-01,  3.5D-01, -8.0D-01, r^2= 2.7D+00
   Bfn.  Coefficient  Atom+Function         Bfn.  Coefficient  Atom+Function  
  ----- ------------  ---------------      ----- ------------  ---------------
     6      7.917585   1 C  s                21     -7.901780   2 C  s         
     5     -4.649478   1 C  s                20      4.636000   2 C  s         
     4      2.878007   1 C  s                19     -2.868921   2 C  s         
    14     -2.535052   1 C  py               29     -2.114720   2 C  py        
    30     -2.050830   2 C  pz               13      1.984999   1 C  px        
 
 Vector  113  Occ=0.000000D+00  E= 2.785796D+00
              MO Center=  1.1D-01, -1.6D-01,  3.6D-01, r^2= 7.2D+00
   Bfn.  Coefficient  Atom+Function         Bfn.  Coefficient  Atom+Function  
  ----- ------------  ---------------      ----- ------------  ---------------
    57      4.456424   6 C  s                39      4.418992   4 C  s         
    75     -4.345360   8 C  s                99     -4.345968  12 C  s         
    56     -2.816403   6 C  s                38     -2.797265   4 C  s         
    74      2.760861   8 C  s                98      2.763355  12 C  s         
    55      1.899533   6 C  s                37      1.886930   4 C  s         
 
 Vector  114  Occ=0.000000D+00  E= 2.864354D+00
              MO Center=  9.9D-02, -1.5D-01,  3.6D-01, r^2= 4.9D+00
   Bfn.  Coefficient  Atom+Function         Bfn.  Coefficient  Atom+Function  
  ----- ------------  ---------------      ----- ------------  ---------------
    39      8.123762   4 C  s                57     -8.100517   6 C  s         
    15     -4.822502   1 C  pz               38     -4.181800   4 C  s         
    56      4.168796   6 C  s                29     -3.046386   2 C  py        
    30      3.041606   2 C  pz               37      2.602046   4 C  s         
    55     -2.593140   6 C  s                28      2.212538   2 C  px        
 
 Vector  115  Occ=0.000000D+00  E= 1.152251D+01
              MO Center= -2.1D-01,  3.1D-01, -7.0D-01, r^2= 1.3D+00
   Bfn.  Coefficient  Atom+Function         Bfn.  Coefficient  Atom+Function  
  ----- ------------  ---------------      ----- ------------  ---------------
     4     -2.300396   1 C  s                19     -2.302057   2 C  s         
     3      2.242812   1 C  s                18      2.244661   2 C  s         
     5      1.943277   1 C  s                20      1.944243   2 C  s         
     6     -1.239401   1 C  s                21     -1.237711   2 C  s         
     2     -1.179034   1 C  s                17     -1.180020   2 C  s         
 
 Vector  116  Occ=0.000000D+00  E= 1.168084D+01
              MO Center=  1.1D-01, -1.6D-01,  3.4D-01, r^2= 8.0D+00
   Bfn.  Coefficient  Atom+Function         Bfn.  Coefficient  Atom+Function  
  ----- ------------  ---------------      ----- ------------  ---------------
    73     -2.385125   8 C  s                97      2.391953  12 C  s         
    72      2.309706   8 C  s                96     -2.316296  12 C  s         
    74      2.087730   8 C  s                98     -2.093741  12 C  s         
    75     -1.491433   8 C  s                99      1.495641  12 C  s         
    71     -1.209303   8 C  s                95      1.212751  12 C  s         
 
 Vector  117  Occ=0.000000D+00  E= 1.169465D+01
              MO Center=  7.9D-02, -1.3D-01,  2.9D-01, r^2= 7.5D+00
   Bfn.  Coefficient  Atom+Function         Bfn.  Coefficient  Atom+Function  
  ----- ------------  ---------------      ----- ------------  ---------------
    73     -2.280998   8 C  s                97     -2.274914  12 C  s         
    72      2.206581   8 C  s                96      2.200732  12 C  s         
    74      2.004445   8 C  s                98      1.998898  12 C  s         
    75     -1.490742   8 C  s                99     -1.485811  12 C  s         
    71     -1.153814   8 C  s                95     -1.150756  12 C  s         
 
 Vector  118  Occ=0.000000D+00  E= 1.171708D+01
              MO Center=  8.4D-02, -1.2D-01,  2.9D-01, r^2= 3.2D+00
   Bfn.  Coefficient  Atom+Function         Bfn.  Coefficient  Atom+Function  
  ----- ------------  ---------------      ----- ------------  ---------------
    37     -2.360557   4 C  s                55     -2.360120   6 C  s         
    36      2.250457   4 C  s                54      2.250065   6 C  s         
    38      2.142145   4 C  s                56      2.141754   6 C  s         
    39     -1.916165   4 C  s                57     -1.916873   6 C  s         
    35     -1.174897   4 C  s                53     -1.174692   6 C  s         
 
 Vector  119  Occ=0.000000D+00  E= 1.178694D+01
              MO Center=  8.6D-02, -1.3D-01,  2.9D-01, r^2= 3.0D+00
   Bfn.  Coefficient  Atom+Function         Bfn.  Coefficient  Atom+Function  
  ----- ------------  ---------------      ----- ------------  ---------------
    39      2.682287   4 C  s                57     -2.681843   6 C  s         
    37      2.531219   4 C  s                55     -2.531493   6 C  s         
    38     -2.433658   4 C  s                56      2.433971   6 C  s         
    36     -2.345313   4 C  s                54      2.345522   6 C  s         
    15     -1.216945   1 C  pz               35      1.216705   4 C  s         
 
 Vector  120  Occ=0.000000D+00  E= 1.194115D+01
              MO Center= -2.3D-01,  3.4D-01, -7.6D-01, r^2= 8.2D-01
   Bfn.  Coefficient  Atom+Function         Bfn.  Coefficient  Atom+Function  
  ----- ------------  ---------------      ----- ------------  ---------------
     6      3.383586   1 C  s                21     -3.382549   2 C  s         
     5     -2.647375   1 C  s                20      2.645278   2 C  s         
     4      2.589879   1 C  s                19     -2.587707   2 C  s         
     3     -2.365370   1 C  s                18      2.363484   2 C  s         
    30     -1.350163   2 C  pz                2      1.222176   1 C  s         
 
 Vector  121  Occ=0.000000D+00  E= 6.247711D+01
              MO Center= -2.1D-01,  3.1D-01, -7.0D-01, r^2= 9.6D-01
   Bfn.  Coefficient  Atom+Function         Bfn.  Coefficient  Atom+Function  
  ----- ------------  ---------------      ----- ------------  ---------------
     2      2.008824   1 C  s                17      2.010568   2 C  s         
     3     -1.522247   1 C  s                18     -1.523556   2 C  s         
     1     -1.191575   1 C  s                16     -1.192610   2 C  s         
     4      1.012135   1 C  s                19      1.012917   2 C  s         
     5     -0.810839   1 C  s                20     -0.811304   2 C  s         
 
 Vector  122  Occ=0.000000D+00  E= 6.262653D+01
              MO Center=  1.1D-01, -1.6D-01,  3.4D-01, r^2= 7.8D+00
   Bfn.  Coefficient  Atom+Function         Bfn.  Coefficient  Atom+Function  
  ----- ------------  ---------------      ----- ------------  ---------------
    71      2.079880   8 C  s                95     -2.087490  12 C  s         
    72     -1.585794   8 C  s                96      1.591601  12 C  s         
    70     -1.229414   8 C  s                94      1.233912  12 C  s         
    73      1.063855   8 C  s                97     -1.067746  12 C  s         
    74     -0.882012   8 C  s                98      0.885217  12 C  s         
 
 Vector  123  Occ=0.000000D+00  E= 6.263748D+01
              MO Center=  7.3D-02, -1.2D-01,  2.8D-01, r^2= 6.8D+00
   Bfn.  Coefficient  Atom+Function         Bfn.  Coefficient  Atom+Function  
  ----- ------------  ---------------      ----- ------------  ---------------
    71      1.893771   8 C  s                95      1.886036  12 C  s         
    72     -1.445653   8 C  s                96     -1.439750  12 C  s         
    70     -1.118942   8 C  s                94     -1.114372  12 C  s         
    73      0.969585   8 C  s                97      0.965604  12 C  s         
    74     -0.803506   8 C  s                98     -0.800108  12 C  s         
 
 Vector  124  Occ=0.000000D+00  E= 6.266328D+01
              MO Center=  8.6D-02, -1.3D-01,  2.9D-01, r^2= 3.3D+00
   Bfn.  Coefficient  Atom+Function         Bfn.  Coefficient  Atom+Function  
  ----- ------------  ---------------      ----- ------------  ---------------
    35      1.931674   4 C  s                53      1.931214   6 C  s         
    36     -1.477188   4 C  s                54     -1.476834   6 C  s         
    34     -1.140363   4 C  s                52     -1.140092   6 C  s         
    37      1.008946   4 C  s                55      1.008702   6 C  s         
    38     -0.872619   4 C  s                56     -0.872420   6 C  s         
 
 Vector  125  Occ=0.000000D+00  E= 6.273519D+01
              MO Center=  8.5D-02, -1.2D-01,  2.9D-01, r^2= 2.6D+00
   Bfn.  Coefficient  Atom+Function         Bfn.  Coefficient  Atom+Function  
  ----- ------------  ---------------      ----- ------------  ---------------
    35      2.092260   4 C  s                53     -2.092775   6 C  s         
    36     -1.610444   4 C  s                54      1.610840   6 C  s         
    34     -1.232317   4 C  s                52      1.232620   6 C  s         
    37      1.130409   4 C  s                39      1.127337   4 C  s         
    55     -1.130705   6 C  s                57     -1.127322   6 C  s         
 
 Vector  126  Occ=0.000000D+00  E= 6.289125D+01
              MO Center= -2.3D-01,  3.4D-01, -7.6D-01, r^2= 5.4D-01
   Bfn.  Coefficient  Atom+Function         Bfn.  Coefficient  Atom+Function  
  ----- ------------  ---------------      ----- ------------  ---------------
     2      2.103616   1 C  s                17     -2.101992   2 C  s         
     3     -1.629725   1 C  s                18      1.628457   2 C  s         
     6      1.451714   1 C  s                21     -1.451298   2 C  s         
     1     -1.234541   1 C  s                16      1.233589   2 C  s         
     4      1.164551   1 C  s                19     -1.163603   2 C  s         
 

 center of mass
 --------------
 x =  -0.01049745 y =   0.01582267 z =  -0.03551111

 moments of inertia (a.u.)
 ------------------
         583.174990490247         358.759894904275         339.926544177057
         358.759894904275        1062.598186838944        -165.238641766414
         339.926544177057        -165.238641766414        1024.184556638268
 
     Multipole analysis of the density
     ---------------------------------
 
     L   x y z        total         alpha         beta         nuclear
     -   - - -        -----         -----         ----         -------
     0   0 0 0     -0.000000    -24.000000    -24.000000     48.000000
 
     1   1 0 0      0.027137      0.013568      0.013568      0.000000
     1   0 1 0     -0.041468     -0.020734     -0.020734     -0.000000
     1   0 0 1      0.093212      0.046606      0.046606     -0.000000
 
     2   2 0 0    -30.945686   -246.797658   -246.797658    462.649630
     2   1 1 0     -1.115189    106.504045    106.504045   -214.123279
     2   1 0 1     -0.078458    101.702504    101.702504   -203.483467
     2   0 2 0    -29.753891   -100.808066   -100.808066    171.862241
     2   0 1 1      0.246504    -48.609056    -48.609056     97.464616
     2   0 0 2    -29.433934   -113.275826   -113.275826    197.117718
 

 Task  times  cpu:        6.3s     wall:        6.5s
 
 
                                NWChem Input Module
                                -------------------
 
 
 Summary of allocated global arrays
-----------------------------------
  No active global arrays



                         GA Statistics for process    0
                         ------------------------------

       create   destroy   get      put      acc     scatter   gather  read&inc
calls:  168      168     3.45e+04 2057     3.03e+04    0        0      457     
number of processes/call 7.88e+00 3.51e+01 6.03e+00 0.00e+00 0.00e+00
bytes total:             4.96e+07 5.89e+06 2.84e+07 0.00e+00 0.00e+00 3.66e+03
bytes remote:            4.02e+07 3.14e+06 2.40e+07 0.00e+00 0.00e+00 0.00e+00
Max memory consumed for GA by this process: 686080 bytes
 
 
 
                                     CITATION
                                     --------
                Please cite the following reference when publishing
                           results obtained with NWChem:
 
          E. Apr, E. J. Bylaska, W. A. de Jong, N. Govind, K. Kowalski,
       T. P. Straatsma, M. Valiev, H. J. J. van Dam, Y. Alexeev, J. Anchell,
       V. Anisimov, F. W. Aquino, R. Atta-Fynn, J. Autschbach, N. P. Bauman,
     J. C. Becca, D. E. Bernholdt, K. Bhaskaran-Nair, S. Bogatko, P. Borowski,
        J. Boschen, J. Brabec, A. Bruner, E. Caut, Y. Chen, G. N. Chuev,
      C. J. Cramer, J. Daily, M. J. O. Deegan, T. H. Dunning Jr., M. Dupuis,
   K. G. Dyall, G. I. Fann, S. A. Fischer, A. Fonari, H. Frchtl, L. Gagliardi,
      J. Garza, N. Gawande, S. Ghosh, K. Glaesemann, A. W. Gtz, J. Hammond,
       V. Helms, E. D. Hermes, K. Hirao, S. Hirata, M. Jacquelin, L. Jensen,
   B. G. Johnson, H. Jnsson, R. A. Kendall, M. Klemm, R. Kobayashi, V. Konkov,
      S. Krishnamoorthy, M. Krishnan, Z. Lin, R. D. Lins, R. J. Littlefield,
      A. J. Logsdail, K. Lopata, W. Ma, A. V. Marenich, J. Martin del Campo,
   D. Mejia-Rodriguez, J. E. Moore, J. M. Mullin, T. Nakajima, D. R. Nascimento,
    J. A. Nichols, P. J. Nichols, J. Nieplocha, A. Otero-de-la-Roza, B. Palmer,
    A. Panyala, T. Pirojsirikul, B. Peng, R. Peverati, J. Pittner, L. Pollack,
   R. M. Richard, P. Sadayappan, G. C. Schatz, W. A. Shelton, D. W. Silverstein,
   D. M. A. Smith, T. A. Soares, D. Song, M. Swart, H. L. Taylor, G. S. Thomas,
            V. Tipparaju, D. G. Truhlar, K. Tsemekhman, T. Van Voorhis,
     . Vzquez-Mayagoitia, P. Verma, O. Villa, A. Vishnu, K. D. Vogiatzis,
        D. Wang, J. H. Weare, M. J. Williamson, T. L. Windus, K. Woliski,
        A. T. Wong, Q. Wu, C. Yang, Q. Yu, M. Zacharias, Z. Zhang, Y. Zhao,
                                and R. J. Harrison
                        "NWChem: Past, present, and future
                         J. Chem. Phys. 152, 184102 (2020)
                               doi:10.1063/5.0004997
 
                                      AUTHORS
                                      -------
     E. Apra, E. J. Bylaska, N. Govind, K. Kowalski, M. Valiev, W. A. de Jong,
      T. P. Straatsma, H. J. J. van Dam, D. Wang, T. L. Windus, N. P. Bauman,
       A. Panyala, J. Hammond, J. Autschbach, K. Bhaskaran-Nair, J. Brabec,
    K. Lopata, S. A. Fischer, S. Krishnamoorthy, M. Jacquelin, W. Ma, M. Klemm,
       O. Villa, Y. Chen, V. Anisimov, F. Aquino, S. Hirata, M. T. Hackler,
           Eric Hermes, L. Jensen, J. E. Moore, J. C. Becca, V. Konjkov,
            D. Mejia-Rodriguez, T. Risthaus, M. Malagoli, A. Marenich,
   A. Otero-de-la-Roza, J. Mullin, P. Nichols, R. Peverati, J. Pittner, Y. Zhao,
        P.-D. Fan, A. Fonari, M. J. Williamson, R. J. Harrison, J. R. Rehr,
      M. Dupuis, D. Silverstein, D. M. A. Smith, J. Nieplocha, V. Tipparaju,
      M. Krishnan, B. E. Van Kuiken, A. Vazquez-Mayagoitia, M. Swart, Q. Wu,
   T. Van Voorhis, A. A. Auer, M. Nooijen, L. D. Crosby, E. Brown, G. Cisneros,
     G. I. Fann, H. Fruchtl, J. Garza, K. Hirao, R. A. Kendall, J. A. Nichols,
       K. Tsemekhman, K. Wolinski, J. Anchell, D. E. Bernholdt, P. Borowski,
       T. Clark, D. Clerc, H. Dachsel, M. J. O. Deegan, K. Dyall, D. Elwood,
      E. Glendening, M. Gutowski, A. C. Hess, J. Jaffe, B. G. Johnson, J. Ju,
        R. Kobayashi, R. Kutteh, Z. Lin, R. Littlefield, X. Long, B. Meng,
      T. Nakajima, S. Niu, L. Pollack, M. Rosing, K. Glaesemann, G. Sandrone,
      M. Stave, H. Taylor, G. Thomas, J. H. van Lenthe, A. T. Wong, Z. Zhang.

 Total times  cpu:        6.3s     wall:        6.7s
