 
             Northwest Computational Chemistry Package (NWChem) 7.0.0
             --------------------------------------------------------
 
 
                    Environmental Molecular Sciences Laboratory
                       Pacific Northwest National Laboratory
                                Richland, WA 99352
 
                              Copyright (c) 1994-2020
                       Pacific Northwest National Laboratory
                            Battelle Memorial Institute
 
             NWChem is an open-source computational chemistry package
                        distributed under the terms of the
                      Educational Community License (ECL) 2.0
             A copy of the license is included with this distribution
                              in the LICENSE.TXT file
 
                                  ACKNOWLEDGMENT
                                  --------------

            This software and its documentation were developed at the
            EMSL at Pacific Northwest National Laboratory, a multiprogram
            national laboratory, operated for the U.S. Department of Energy
            by Battelle under Contract Number DE-AC05-76RL01830. Support
            for this work was provided by the Department of Energy Office
            of Biological and Environmental Research, Office of Basic
            Energy Sciences, and the Office of Advanced Scientific Computing.


                                NWChem Input Module
                                -------------------
 
 
 Summary of "ao basis" -> "" (spherical)
 ------------------------------------------------------------------------------
       Tag                 Description            Shells   Functions and Types
 ---------------- ------------------------------  ------  ---------------------
 *                        ahlrichs_vtz                on all atoms 



 Scaling coordinates for geometry "geometry" by  1.889725989
 (inverse scale =  0.529177249)

 
 
                             Geometry "geometry" -> ""
                             -------------------------
 
 Output coordinates in angstroms (scale by  1.889725989 to convert to a.u.)
 
  No.       Tag          Charge          X              Y              Z
 ---- ---------------- ---------- -------------- -------------- --------------
    1 C                    6.0000    -0.42652649     0.22027403     0.46991877
    2 C                    6.0000     0.42652213    -0.22026973    -0.46992663
    3 H                    1.0000    -0.51899301     1.30267594     0.63576438
    4 C                    6.0000    -1.30998561    -0.65127726     1.32484504
    5 C                    6.0000     1.30998859     0.65128282    -1.32484446
    6 H                    1.0000     0.51899042    -1.30267212    -0.63576792
    7 H                    1.0000    -1.10348887    -1.71196874     1.10553476
    8 C                    6.0000    -2.81075841    -0.35823353     1.12121296
    9 H                    1.0000    -1.06025319    -0.49723646     2.39071501
   10 H                    1.0000    -3.10663368    -0.54949836     0.07922274
   11 H                    1.0000    -3.04228590     0.69430577     1.34728322
   12 H                    1.0000    -3.43033768    -0.98831887     1.77684293
   13 H                    1.0000     1.10349559     1.71197461    -1.10553812
   14 H                    1.0000     1.06026037     0.49723959    -2.39071619
   15 C                    6.0000     2.81075825     0.35822549    -1.12120882
   16 H                    1.0000     3.10663119     0.54950226    -0.07921898
   17 H                    1.0000     3.43034587     0.98830276    -1.77683909
   18 H                    1.0000     3.04227823    -0.69431724    -1.34726413
 
      Atomic Mass 
      ----------- 
 
      C                 12.000000
      H                  1.007825
 

 Effective nuclear repulsion energy (a.u.)     225.4618349369

            Nuclear Dipole moment (a.u.) 
            ----------------------------
        X                 Y               Z
 ---------------- ---------------- ----------------
    -0.0000000000    -0.0000000000     0.0000000000
 
 
            XYZ format geometry
            -------------------
    18
 geometry
 C                    -0.42652649     0.22027403     0.46991877
 C                     0.42652213    -0.22026973    -0.46992663
 H                    -0.51899301     1.30267594     0.63576438
 C                    -1.30998561    -0.65127726     1.32484504
 C                     1.30998859     0.65128282    -1.32484446
 H                     0.51899042    -1.30267212    -0.63576792
 H                    -1.10348887    -1.71196874     1.10553476
 C                    -2.81075841    -0.35823353     1.12121296
 H                    -1.06025319    -0.49723646     2.39071501
 H                    -3.10663368    -0.54949836     0.07922274
 H                    -3.04228590     0.69430577     1.34728322
 H                    -3.43033768    -0.98831887     1.77684293
 H                     1.10349559     1.71197461    -1.10553812
 H                     1.06026037     0.49723959    -2.39071619
 C                     2.81075825     0.35822549    -1.12120882
 H                     3.10663119     0.54950226    -0.07921898
 H                     3.43034587     0.98830276    -1.77683909
 H                     3.04227823    -0.69431724    -1.34726413
 
 ==============================================================================
                                internuclear distances
 ------------------------------------------------------------------------------
       center one      |      center two      | atomic units |  angstroms
 ------------------------------------------------------------------------------
    2 C                |   1 C                |     2.53891  |     1.34353
    3 H                |   1 C                |     2.07668  |     1.09893
    4 C                |   1 C                |     2.84779  |     1.50698
    5 C                |   2 C                |     2.84779  |     1.50698
    6 H                |   2 C                |     2.07668  |     1.09893
    7 H                |   4 C                |     2.08368  |     1.10264
    8 C                |   4 C                |     2.91512  |     1.54261
    9 H                |   4 C                |     2.08913  |     1.10552
   10 H                |   8 C                |     2.07859  |     1.09994
   11 H                |   8 C                |     2.08089  |     1.10116
   12 H                |   8 C                |     2.07933  |     1.10033
   13 H                |   5 C                |     2.08368  |     1.10263
   14 H                |   5 C                |     2.08913  |     1.10552
   15 C                |   5 C                |     2.91512  |     1.54261
   16 H                |  15 C                |     2.07859  |     1.09994
   17 H                |  15 C                |     2.07933  |     1.10034
   18 H                |  15 C                |     2.08089  |     1.10116
 ------------------------------------------------------------------------------
                         number of included internuclear distances:         17
 ==============================================================================



 ==============================================================================
                                 internuclear angles
 ------------------------------------------------------------------------------
        center 1       |       center 2       |       center 3       |  degrees
 ------------------------------------------------------------------------------
    2 C                |   1 C                |   3 H                |   118.81
    2 C                |   1 C                |   4 C                |   125.41
    3 H                |   1 C                |   4 C                |   115.77
    1 C                |   2 C                |   5 C                |   125.41
    1 C                |   2 C                |   6 H                |   118.81
    5 C                |   2 C                |   6 H                |   115.77
    1 C                |   4 C                |   7 H                |   109.49
    1 C                |   4 C                |   8 C                |   112.68
    1 C                |   4 C                |   9 H                |   109.51
    7 H                |   4 C                |   8 C                |   109.80
    7 H                |   4 C                |   9 H                |   106.47
    8 C                |   4 C                |   9 H                |   108.70
    2 C                |   5 C                |  13 H                |   109.49
    2 C                |   5 C                |  14 H                |   109.51
    2 C                |   5 C                |  15 C                |   112.68
   13 H                |   5 C                |  14 H                |   106.47
   13 H                |   5 C                |  15 C                |   109.80
   14 H                |   5 C                |  15 C                |   108.70
    4 C                |   8 C                |  10 H                |   110.71
    4 C                |   8 C                |  11 H                |   111.04
    4 C                |   8 C                |  12 H                |   111.12
   10 H                |   8 C                |  11 H                |   107.71
   10 H                |   8 C                |  12 H                |   108.27
   11 H                |   8 C                |  12 H                |   107.86
    5 C                |  15 C                |  16 H                |   110.71
    5 C                |  15 C                |  17 H                |   111.12
    5 C                |  15 C                |  18 H                |   111.04
   16 H                |  15 C                |  17 H                |   108.26
   16 H                |  15 C                |  18 H                |   107.71
   17 H                |  15 C                |  18 H                |   107.86
 ------------------------------------------------------------------------------
                            number of included internuclear angles:         30
 ==============================================================================



                              Aldehyde and Ketone set
                              -----------------------
 
                                 NWChem DFT Module
                                 -----------------
 
 
                              Aldehyde and Ketone set
 
 
                      Basis "ao basis" -> "ao basis" (spherical)
                      -----
  C (Carbon)
  ----------
            Exponent  Coefficients 
       -------------- ---------------------------------------------------------
  1 S  8.50603840E+03  0.000534
  1 S  1.27573290E+03  0.004125
  1 S  2.90311870E+02  0.021171
  1 S  8.20562000E+01  0.082418
  1 S  2.64796410E+01  0.240129
 
  2 S  9.24145850E+00  1.000000
 
  3 S  3.36435300E+00  1.000000
 
  4 S  8.71741640E-01  1.000000
 
  5 S  3.63523520E-01  1.000000
 
  6 S  1.28731350E-01  1.000000
 
  7 P  3.47094960E+01  0.005330
  7 P  7.95908830E+00  0.035866
  7 P  2.37869720E+00  0.142003
  7 P  8.15400650E-01  0.342031
 
  8 P  2.89537850E-01  1.000000
 
  9 P  1.00847540E-01  1.000000
 
  H (Hydrogen)
  ------------
            Exponent  Coefficients 
       -------------- ---------------------------------------------------------
  1 S  3.40613410E+01  0.006025
  1 S  5.12357460E+00  0.045021
  1 S  1.16466260E+00  0.201897
 
  2 S  3.27230410E-01  1.000000
 
  3 S  1.03072410E-01  1.000000
 


 Summary of "ao basis" -> "ao basis" (spherical)
 ------------------------------------------------------------------------------
       Tag                 Description            Shells   Functions and Types
 ---------------- ------------------------------  ------  ---------------------
 C                        ahlrichs vtz               9       15   6s3p
 H                        ahlrichs vtz               3        3   3s




 Summary of "ao basis" -> "ao basis" (spherical)
 ------------------------------------------------------------------------------
       Tag                 Description            Shells   Functions and Types
 ---------------- ------------------------------  ------  ---------------------
 C                        ahlrichs vtz               9       15   6s3p
 H                        ahlrichs vtz               3        3   3s


  Caching 1-el integrals 
 
            General Information
            -------------------
          SCF calculation type: DFT
          Wavefunction type:  closed shell.
          No. of atoms     :    18
          No. of electrons :    48
           Alpha electrons :    24
            Beta electrons :    24
          Charge           :     0
          Spin multiplicity:     1
          Use of symmetry is: off; symmetry adaption is: off
          Maximum number of iterations: 999
          This is a Direct SCF calculation.
          AO basis - number of functions:   126
                     number of shells:    90
          Convergence on energy requested:  1.00D-08
          Convergence on density requested:  1.00D-07
          Convergence on gradient requested:  1.00D-06
 
              XC Information
              --------------
                        PBE96 Method XC Functional
          PerdewBurkeErnzerhof Exchange Functional  1.000          
            Perdew 1991 LDA Correlation Functional  1.000 local    
           PerdewBurkeErnz. Correlation Functional  1.000 non-local
 
             Grid Information
             ----------------
          Grid used for XC integration:  fine      
          Radial quadrature: Mura-Knowles        
          Angular quadrature: Lebedev. 
          Tag              B.-S. Rad. Rad. Pts. Rad. Cut. Ang. Pts.
          ---              ---------- --------- --------- ---------
          C                   0.70       70          16.0       590
          H                   0.35       60          16.0       590
          Grid pruning is: on 
          Number of quadrature shells:  1140
          Spatial weights used:  Erf1
 
          Convergence Information
          -----------------------
          Convergence aids based upon iterative change in 
          total energy or number of iterations. 
          Levelshifting, if invoked, occurs when the 
          HOMO/LUMO gap drops below (HL_TOL):  1.00D-02
          DIIS, if invoked, will attempt to extrapolate 
          using up to (NFOCK): 10 stored Fock matrices.

                    Damping( 0%)  Levelshifting(0.5)       DIIS
                  --------------- ------------------- ---------------
          dE  on:    start            ASAP                start   
          dE off:    2 iters        999 iters           999 iters 

 
      Screening Tolerance Information
      -------------------------------
          Density screening/tol_rho:  1.00D-12
          AO Gaussian exp screening on grid/accAOfunc:  18
          CD Gaussian exp screening on grid/accCDfunc:  20
          XC Gaussian exp screening on grid/accXCfunc:  20
          Schwarz screening/accCoul:  1.00D-12

      Dispersion Parameters
      ---------------------

           DFT-D3BJ Model   
          s6 scale factor  :        1.000000000000
          s8 scale factor  :        0.787500000000
          a1 parameter     :        0.428900000000
          a2 parameter     :        4.440700000000
              vdW contrib  :       -0.013114640828


 Forcing the number of linearly dependent vectors to be  0
 
      Superposition of Atomic Density Guess
      -------------------------------------
 
 Sum of atomic energies:        -232.02458117
   Time after variat. SCF:      0.2
   Time prior to 1st pass:      0.2

 Grid_pts file          = ./19_transEtCHCHEt.gridpts.00
 Record size in doubles =  12289        No. of grid_pts per rec  =   3070
 Max. records in memory =     18        Max. recs in file   =  67550051


           Memory utilization after 1st SCF pass: 
           Heap Space remaining (MW):        0.00                 242
          Stack Space remaining (MW):      288.36           288357140

   convergence    iter        energy       DeltaE   RMS-Dens  Diis-err    time
 ---------------- ----- ----------------- --------- --------- ---------  ------
 d= 0,ls=0.0,diis     1   -236.1685952241 -4.62D+02  2.53D-02  6.80D+01     0.6
 d= 0,ls=0.0,diis     2   -235.2552625717  9.13D-01  1.80D-02  2.04D+00     1.2
 d= 0,ls=0.0,diis     3   -234.9964054388  2.59D-01  1.25D-02  3.72D+00     1.8
 d= 0,ls=0.0,diis     4   -235.5367288978 -5.40D-01  9.47D-04  5.91D-03     2.3
 d= 0,ls=0.0,diis     5   -235.5375469070 -8.18D-04  2.18D-04  1.48D-03     2.9
 d= 0,ls=0.0,diis     6   -235.5377153501 -1.68D-04  7.81D-05  1.36D-04     3.4
 d= 0,ls=0.0,diis     7   -235.5377324885 -1.71D-05  1.59D-05  1.92D-06     3.9
 d= 0,ls=0.0,diis     8   -235.5377328212 -3.33D-07  2.70D-06  4.17D-08     4.4
 d= 0,ls=0.0,diis     9   -235.5377328290 -7.77D-09  5.57D-07  4.24D-09     4.8
 d= 0,ls=0.0,diis    10   -235.5377328295 -4.78D-10  1.83D-07  8.70D-10     5.3
 d= 0,ls=0.0,diis    11   -235.5377328296 -9.63D-11  6.75D-08  1.65D-10     5.8


         Total DFT energy =     -235.537732829560
      One electron energy =     -761.794802723928
           Coulomb energy =      337.409996480595
          Exchange energy =      -35.063318619328
       Correlation energy =       -1.538328263011
 Nuclear repulsion energy =      225.461834936940

    Dispersion correction =       -0.013114640828

 Numeric. integr. density =       47.999998807933

     Total iterative time =      5.6s


 
                       DFT Final Molecular Orbital Analysis
                       ------------------------------------
 
 Vector    1  Occ=2.000000D+00  E=-9.892152D+00
              MO Center= -4.2D-01, -2.1D-01,  4.3D-01, r^2= 3.5D+00
   Bfn.  Coefficient  Atom+Function         Bfn.  Coefficient  Atom+Function  
  ----- ------------  ---------------      ----- ------------  ---------------
    35      0.345073   4 C  s                36      0.292197   4 C  s         
    34      0.251153   4 C  s                50     -0.246888   5 C  s         
    51     -0.209054   5 C  s                49     -0.179691   5 C  s         
    37      0.047074   4 C  s                52     -0.033683   5 C  s         
 
 Vector    2  Occ=2.000000D+00  E=-9.892151D+00
              MO Center=  4.2D-01,  2.1D-01, -4.3D-01, r^2= 3.5D+00
   Bfn.  Coefficient  Atom+Function         Bfn.  Coefficient  Atom+Function  
  ----- ------------  ---------------      ----- ------------  ---------------
    50      0.345066   5 C  s                51      0.292199   5 C  s         
    49      0.251150   5 C  s                35      0.246878   4 C  s         
    36      0.209058   4 C  s                34      0.179687   4 C  s         
    52      0.047065   5 C  s                37      0.033670   4 C  s         
 
 Vector    3  Occ=2.000000D+00  E=-9.887330D+00
              MO Center= -2.7D-04,  1.4D-04,  2.9D-04, r^2= 4.8D-01
   Bfn.  Coefficient  Atom+Function         Bfn.  Coefficient  Atom+Function  
  ----- ------------  ---------------      ----- ------------  ---------------
     2      0.299932   1 C  s                17      0.299746   2 C  s         
     3      0.254384   1 C  s                18      0.254226   2 C  s         
     1      0.218385   1 C  s                16      0.218249   2 C  s         
     4      0.040546   1 C  s                19      0.040521   2 C  s         
 
 Vector    4  Occ=2.000000D+00  E=-9.886701D+00
              MO Center=  2.6D-04, -1.3D-04, -3.0D-04, r^2= 4.8D-01
   Bfn.  Coefficient  Atom+Function         Bfn.  Coefficient  Atom+Function  
  ----- ------------  ---------------      ----- ------------  ---------------
     2      0.299984   1 C  s                17     -0.300170   2 C  s         
     3      0.253797   1 C  s                18     -0.253955   2 C  s         
     1      0.218269   1 C  s                16     -0.218404   2 C  s         
     4      0.041797   1 C  s                19     -0.041822   2 C  s         
 
 Vector    5  Occ=2.000000D+00  E=-9.880305D+00
              MO Center= -3.6D-02, -4.6D-03,  1.4D-02, r^2= 9.3D+00
   Bfn.  Coefficient  Atom+Function         Bfn.  Coefficient  Atom+Function  
  ----- ------------  ---------------      ----- ------------  ---------------
    71      0.301896   8 C  s               104      0.298084  15 C  s         
    72      0.255782   8 C  s               105      0.252552  15 C  s         
    70      0.219762   8 C  s               103      0.216987  15 C  s         
    73      0.040892   8 C  s               106      0.040376  15 C  s         
 
 Vector    6  Occ=2.000000D+00  E=-9.880305D+00
              MO Center=  3.6D-02,  4.5D-03, -1.4D-02, r^2= 9.3D+00
   Bfn.  Coefficient  Atom+Function         Bfn.  Coefficient  Atom+Function  
  ----- ------------  ---------------      ----- ------------  ---------------
   104     -0.301893  15 C  s                71      0.298080   8 C  s         
   105     -0.255794  15 C  s                72      0.252564   8 C  s         
   103     -0.219763  15 C  s                70      0.216988   8 C  s         
   106     -0.040842  15 C  s                73      0.040326   8 C  s         
 
 Vector    7  Occ=2.000000D+00  E=-7.353792D-01
              MO Center= -1.4D-06,  8.8D-07, -3.3D-07, r^2= 3.3D+00
   Bfn.  Coefficient  Atom+Function         Bfn.  Coefficient  Atom+Function  
  ----- ------------  ---------------      ----- ------------  ---------------
     5      0.274799   1 C  s                20      0.274799   2 C  s         
    38      0.218784   4 C  s                53      0.218784   5 C  s         
    74      0.123077   8 C  s               107      0.123077  15 C  s         
    39      0.101919   4 C  s                54      0.101919   5 C  s         
     3     -0.083782   1 C  s                18     -0.083782   2 C  s         
 
 Vector    8  Occ=2.000000D+00  E=-6.992088D-01
              MO Center=  2.6D-06,  2.1D-07, -3.9D-07, r^2= 6.4D+00
   Bfn.  Coefficient  Atom+Function         Bfn.  Coefficient  Atom+Function  
  ----- ------------  ---------------      ----- ------------  ---------------
    38      0.276483   4 C  s                53     -0.276483   5 C  s         
    74      0.223857   8 C  s               107     -0.223857  15 C  s         
     5      0.101994   1 C  s                20     -0.101994   2 C  s         
    36     -0.076441   4 C  s                51      0.076441   5 C  s         
    75      0.072086   8 C  s               108     -0.072086  15 C  s         
 
 Vector    9  Occ=2.000000D+00  E=-6.446993D-01
              MO Center= -2.9D-06, -1.2D-06,  1.8D-06, r^2= 6.8D+00
   Bfn.  Coefficient  Atom+Function         Bfn.  Coefficient  Atom+Function  
  ----- ------------  ---------------      ----- ------------  ---------------
    74      0.274135   8 C  s               107      0.274135  15 C  s         
     5     -0.223112   1 C  s                20     -0.223112   2 C  s         
    38      0.110811   4 C  s                53      0.110811   5 C  s         
    75      0.096427   8 C  s               108      0.096427  15 C  s         
    72     -0.075175   8 C  s               105     -0.075175  15 C  s         
 
 Vector   10  Occ=2.000000D+00  E=-5.764650D-01
              MO Center=  1.4D-06, -9.3D-07,  7.7D-07, r^2= 8.2D+00
   Bfn.  Coefficient  Atom+Function         Bfn.  Coefficient  Atom+Function  
  ----- ------------  ---------------      ----- ------------  ---------------
    74      0.274407   8 C  s               107     -0.274407  15 C  s         
    38     -0.182762   4 C  s                53      0.182762   5 C  s         
     5     -0.149083   1 C  s                20      0.149084   2 C  s         
    75      0.105542   8 C  s               108     -0.105542  15 C  s         
    40     -0.079317   4 C  px               55     -0.079317   5 C  px        
 
 Vector   11  Occ=2.000000D+00  E=-5.334726D-01
              MO Center=  3.3D-06,  1.0D-06, -1.8D-06, r^2= 7.1D+00
   Bfn.  Coefficient  Atom+Function         Bfn.  Coefficient  Atom+Function  
  ----- ------------  ---------------      ----- ------------  ---------------
    38      0.267900   4 C  s                53      0.267901   5 C  s         
    74     -0.190680   8 C  s               107     -0.190680  15 C  s         
     5     -0.121427   1 C  s                20     -0.121428   2 C  s         
    39      0.099960   4 C  s                54      0.099961   5 C  s         
    75     -0.085847   8 C  s               108     -0.085847  15 C  s         
 
 Vector   12  Occ=2.000000D+00  E=-4.928862D-01
              MO Center= -2.7D-06,  1.9D-06,  5.8D-08, r^2= 3.3D+00
   Bfn.  Coefficient  Atom+Function         Bfn.  Coefficient  Atom+Function  
  ----- ------------  ---------------      ----- ------------  ---------------
     5      0.237852   1 C  s                20     -0.237851   2 C  s         
     8      0.132297   1 C  py               23      0.132297   2 C  py        
    32      0.118536   3 H  s                65     -0.118536   6 H  s         
    31      0.105922   3 H  s                64     -0.105921   6 H  s         
    11      0.104302   1 C  py               26      0.104302   2 C  py        
 
 Vector   13  Occ=2.000000D+00  E=-4.140581D-01
              MO Center=  7.3D-07,  5.0D-06,  5.9D-06, r^2= 5.6D+00
   Bfn.  Coefficient  Atom+Function         Bfn.  Coefficient  Atom+Function  
  ----- ------------  ---------------      ----- ------------  ---------------
    41      0.160567   4 C  py               56     -0.160570   5 C  py        
    44      0.131376   4 C  py               59     -0.131378   5 C  py        
     9      0.115818   1 C  pz               24     -0.115819   2 C  pz        
    77      0.109513   8 C  py              110     -0.109516  15 C  py        
     7     -0.100420   1 C  px               22      0.100427   2 C  px        
 
 Vector   14  Occ=2.000000D+00  E=-4.123236D-01
              MO Center= -1.3D-05, -4.7D-06,  5.0D-06, r^2= 6.2D+00
   Bfn.  Coefficient  Atom+Function         Bfn.  Coefficient  Atom+Function  
  ----- ------------  ---------------      ----- ------------  ---------------
    42      0.174711   4 C  pz               57      0.174710   5 C  pz        
    45      0.144114   4 C  pz               60      0.144115   5 C  pz        
    78      0.122068   8 C  pz              111      0.122067  15 C  pz        
     8      0.110311   1 C  py               23      0.110317   2 C  py        
    81      0.102169   8 C  pz              114      0.102168  15 C  pz        
 
 Vector   15  Occ=2.000000D+00  E=-3.819317D-01
              MO Center=  2.9D-05,  7.1D-06, -2.0D-05, r^2= 8.7D+00
   Bfn.  Coefficient  Atom+Function         Bfn.  Coefficient  Atom+Function  
  ----- ------------  ---------------      ----- ------------  ---------------
    78      0.164289   8 C  pz              111     -0.164290  15 C  pz        
    42      0.145881   4 C  pz               57     -0.145884   5 C  pz        
    81      0.140818   8 C  pz              114     -0.140819  15 C  pz        
    45      0.125252   4 C  pz               60     -0.125255   5 C  pz        
     7      0.094412   1 C  px               22     -0.094414   2 C  px        
 
 Vector   16  Occ=2.000000D+00  E=-3.746492D-01
              MO Center=  1.4D-06, -7.1D-06,  2.4D-06, r^2= 7.5D+00
   Bfn.  Coefficient  Atom+Function         Bfn.  Coefficient  Atom+Function  
  ----- ------------  ---------------      ----- ------------  ---------------
    77      0.163254   8 C  py              110      0.163254  15 C  py        
    80      0.136047   8 C  py              113      0.136047  15 C  py        
     8     -0.119784   1 C  py               23     -0.119787   2 C  py        
    41      0.115356   4 C  py               56      0.115353   5 C  py        
    92      0.109086  11 H  s               125     -0.109086  18 H  s         
 
 Vector   17  Occ=2.000000D+00  E=-3.502697D-01
              MO Center= -2.3D-05, -6.6D-06,  1.3D-05, r^2= 8.3D+00
   Bfn.  Coefficient  Atom+Function         Bfn.  Coefficient  Atom+Function  
  ----- ------------  ---------------      ----- ------------  ---------------
    76      0.196554   8 C  px              109      0.196553  15 C  px        
    40     -0.172220   4 C  px               55     -0.172218   5 C  px        
    79      0.157069   8 C  px              112      0.157068  15 C  px        
    43     -0.141465   4 C  px               58     -0.141464   5 C  px        
     5     -0.102238   1 C  s                20      0.102238   2 C  s         
 
 Vector   18  Occ=2.000000D+00  E=-3.349363D-01
              MO Center=  6.2D-06,  1.8D-07, -7.4D-08, r^2= 7.8D+00
   Bfn.  Coefficient  Atom+Function         Bfn.  Coefficient  Atom+Function  
  ----- ------------  ---------------      ----- ------------  ---------------
    77      0.180581   8 C  py              110     -0.180582  15 C  py        
    80      0.151181   8 C  py              113     -0.151182  15 C  py        
     8     -0.137714   1 C  py               23      0.137712   2 C  py        
    92      0.123194  11 H  s               125      0.123196  18 H  s         
    32     -0.121863   3 H  s                65     -0.121862   6 H  s         
 
 Vector   19  Occ=2.000000D+00  E=-3.253802D-01
              MO Center= -7.7D-05, -1.6D-05,  3.3D-05, r^2= 7.5D+00
   Bfn.  Coefficient  Atom+Function         Bfn.  Coefficient  Atom+Function  
  ----- ------------  ---------------      ----- ------------  ---------------
    40      0.183556   4 C  px               55     -0.183554   5 C  px        
    76     -0.178779   8 C  px              109      0.178779  15 C  px        
    43      0.154956   4 C  px               58     -0.154954   5 C  px        
    79     -0.146946   8 C  px              112      0.146946  15 C  px        
    78     -0.102427   8 C  pz              111      0.102413  15 C  pz        
 
 Vector   20  Occ=2.000000D+00  E=-3.184248D-01
              MO Center=  5.6D-05,  1.0D-05, -2.3D-05, r^2= 9.5D+00
   Bfn.  Coefficient  Atom+Function         Bfn.  Coefficient  Atom+Function  
  ----- ------------  ---------------      ----- ------------  ---------------
    78      0.180596   8 C  pz              111      0.180601  15 C  pz        
    81      0.151839   8 C  pz              114      0.151843  15 C  pz        
    89     -0.125566  10 H  s               119      0.125570  16 H  s         
    95      0.119114  12 H  s               122     -0.119112  17 H  s         
    42     -0.104751   4 C  pz               57     -0.104750   5 C  pz        
 
 Vector   21  Occ=2.000000D+00  E=-2.970144D-01
              MO Center=  3.4D-04,  9.2D-05, -2.2D-04, r^2= 7.7D+00
   Bfn.  Coefficient  Atom+Function         Bfn.  Coefficient  Atom+Function  
  ----- ------------  ---------------      ----- ------------  ---------------
    41      0.163175   4 C  py               56      0.163204   5 C  py        
    68     -0.147604   7 H  s                98      0.147634  13 H  s         
    44      0.136309   4 C  py               59      0.136334   5 C  py        
    77     -0.130593   8 C  py              110     -0.130610  15 C  py        
    92     -0.126637  11 H  s               125      0.126656  18 H  s         
 
 Vector   22  Occ=2.000000D+00  E=-2.937988D-01
              MO Center= -3.2D-04, -8.9D-05,  2.1D-04, r^2= 6.7D+00
   Bfn.  Coefficient  Atom+Function         Bfn.  Coefficient  Atom+Function  
  ----- ------------  ---------------      ----- ------------  ---------------
    68      0.131725   7 H  s                98      0.131692  13 H  s         
    41     -0.119514   4 C  py               56      0.119477   5 C  py        
    86     -0.108264   9 H  s               101     -0.108251  14 H  s         
    42     -0.103876   4 C  pz               57      0.103866   5 C  pz        
    32      0.098171   3 H  s                44     -0.097720   4 C  py        
 
 Vector   23  Occ=2.000000D+00  E=-2.833876D-01
              MO Center=  1.0D-06,  3.2D-06,  2.1D-06, r^2= 5.8D+00
   Bfn.  Coefficient  Atom+Function         Bfn.  Coefficient  Atom+Function  
  ----- ------------  ---------------      ----- ------------  ---------------
     8      0.143519   1 C  py               23     -0.143516   2 C  py        
    42      0.132661   4 C  pz               57     -0.132664   5 C  pz        
    11      0.126409   1 C  py               26     -0.126407   2 C  py        
    32      0.115593   3 H  s                65      0.115590   6 H  s         
    33      0.114346   3 H  s                66      0.114346   6 H  s         
 
 Vector   24  Occ=2.000000D+00  E=-2.126305D-01
              MO Center= -2.7D-06,  2.7D-06, -5.1D-06, r^2= 2.9D+00
   Bfn.  Coefficient  Atom+Function         Bfn.  Coefficient  Atom+Function  
  ----- ------------  ---------------      ----- ------------  ---------------
     7      0.200024   1 C  px               22      0.200021   2 C  px        
    10      0.190772   1 C  px               25      0.190770   2 C  px        
     9      0.186320   1 C  pz               24      0.186322   2 C  pz        
    12      0.176930   1 C  pz               27      0.176931   2 C  pz        
    75      0.116658   8 C  s               108     -0.116658  15 C  s         
 
 Vector   25  Occ=0.000000D+00  E=-1.478637D-02
              MO Center= -3.6D-06,  3.9D-07, -3.8D-06, r^2= 4.1D+00
   Bfn.  Coefficient  Atom+Function         Bfn.  Coefficient  Atom+Function  
  ----- ------------  ---------------      ----- ------------  ---------------
    13      0.432475   1 C  px               28     -0.432472   2 C  px        
    15      0.386627   1 C  pz               30     -0.386632   2 C  pz        
    75      0.347397   8 C  s               108      0.347397  15 C  s         
    96     -0.297369  12 H  s               123     -0.297369  17 H  s         
    10      0.251637   1 C  px               25     -0.251635   2 C  px        
 
 Vector   26  Occ=0.000000D+00  E= 3.386061D-02
              MO Center=  1.5D-05,  5.2D-06, -1.6D-06, r^2= 1.2D+01
   Bfn.  Coefficient  Atom+Function         Bfn.  Coefficient  Atom+Function  
  ----- ------------  ---------------      ----- ------------  ---------------
    39      1.190328   4 C  s                54      1.190327   5 C  s         
    75      1.038944   8 C  s               108      1.038960  15 C  s         
    14      0.762869   1 C  py               29     -0.762871   2 C  py        
    33     -0.748813   3 H  s                66     -0.748813   6 H  s         
    87     -0.602668   9 H  s               102     -0.602670  14 H  s         
 
 Vector   27  Occ=0.000000D+00  E= 3.651642D-02
              MO Center= -6.6D-06, -6.9D-07,  9.7D-06, r^2= 1.4D+01
   Bfn.  Coefficient  Atom+Function         Bfn.  Coefficient  Atom+Function  
  ----- ------------  ---------------      ----- ------------  ---------------
    75      1.409212   8 C  s               108     -1.409208  15 C  s         
    39      0.753881   4 C  s                54     -0.753878   5 C  s         
    93     -0.699563  11 H  s               126      0.699558  18 H  s         
    69     -0.644803   7 H  s                99      0.644802  13 H  s         
    96     -0.585710  12 H  s               123      0.585709  17 H  s         
 
 Vector   28  Occ=0.000000D+00  E= 4.296389D-02
              MO Center=  6.6D-06, -4.5D-06, -3.4D-06, r^2= 8.3D+00
   Bfn.  Coefficient  Atom+Function         Bfn.  Coefficient  Atom+Function  
  ----- ------------  ---------------      ----- ------------  ---------------
    33      1.278357   3 H  s                66     -1.278364   6 H  s         
    69     -0.995455   7 H  s                99      0.995455  13 H  s         
    39      0.571963   4 C  s                54     -0.571962   5 C  s         
     6     -0.538132   1 C  s                21      0.538135   2 C  s         
    14     -0.511797   1 C  py               29     -0.511806   2 C  py        
 
 Vector   29  Occ=0.000000D+00  E= 6.866479D-02
              MO Center= -1.4D-05, -1.5D-06,  3.3D-06, r^2= 1.3D+01
   Bfn.  Coefficient  Atom+Function         Bfn.  Coefficient  Atom+Function  
  ----- ------------  ---------------      ----- ------------  ---------------
    39      1.597758   4 C  s                54     -1.597744   5 C  s         
    75     -1.380816   8 C  s               108      1.380802  15 C  s         
    87     -1.254402   9 H  s               102      1.254404  14 H  s         
    90      0.832709  10 H  s               120     -0.832702  16 H  s         
    48      0.477499   4 C  pz               63      0.477503   5 C  pz        
 
 Vector   30  Occ=0.000000D+00  E= 7.123780D-02
              MO Center=  1.1D-05,  7.5D-07, -6.3D-06, r^2= 1.4D+01
   Bfn.  Coefficient  Atom+Function         Bfn.  Coefficient  Atom+Function  
  ----- ------------  ---------------      ----- ------------  ---------------
    75     -1.766799   8 C  s               108     -1.766808  15 C  s         
    39      1.699652   4 C  s                54      1.699662   5 C  s         
    93      0.749651  11 H  s               126      0.749654  18 H  s         
    33     -0.658517   3 H  s                66     -0.658515   6 H  s         
    14      0.613956   1 C  py               29     -0.613951   2 C  py        
 
 Vector   31  Occ=0.000000D+00  E= 8.929289D-02
              MO Center= -3.9D-05, -7.8D-06,  3.0D-05, r^2= 1.4D+01
   Bfn.  Coefficient  Atom+Function         Bfn.  Coefficient  Atom+Function  
  ----- ------------  ---------------      ----- ------------  ---------------
    93      1.065676  11 H  s                96     -1.060518  12 H  s         
   123     -1.060473  17 H  s               126      1.065656  18 H  s         
    33      0.974704   3 H  s                66      0.974699   6 H  s         
    69     -0.947068   7 H  s                99     -0.947076  13 H  s         
    14     -0.762037   1 C  py               29      0.762032   2 C  py        
 
 Vector   32  Occ=0.000000D+00  E= 9.135912D-02
              MO Center=  3.8D-05,  2.1D-05, -1.9D-05, r^2= 1.1D+01
   Bfn.  Coefficient  Atom+Function         Bfn.  Coefficient  Atom+Function  
  ----- ------------  ---------------      ----- ------------  ---------------
    87      1.449338   9 H  s               102      1.449333  14 H  s         
    33     -1.264580   3 H  s                66     -1.264574   6 H  s         
     6      1.168207   1 C  s                21      1.168220   2 C  s         
    14      1.011858   1 C  py               29     -1.011855   2 C  py        
    47     -0.941673   4 C  py               62      0.941697   5 C  py        
 
 Vector   33  Occ=0.000000D+00  E= 9.736790D-02
              MO Center=  2.0D-05, -1.7D-05, -3.9D-06, r^2= 1.8D+01
   Bfn.  Coefficient  Atom+Function         Bfn.  Coefficient  Atom+Function  
  ----- ------------  ---------------      ----- ------------  ---------------
    96      1.827162  12 H  s               123     -1.827185  17 H  s         
    83      0.986774   8 C  py              116      0.986773  15 C  py        
    84     -0.737538   8 C  pz              117     -0.737564  15 C  pz        
    93     -0.721503  11 H  s               126      0.721525  18 H  s         
    39      0.666468   4 C  s                54     -0.666487   5 C  s         
 
 Vector   34  Occ=0.000000D+00  E= 1.037385D-01
              MO Center= -2.0D-05,  5.9D-07, -1.9D-06, r^2= 1.3D+01
   Bfn.  Coefficient  Atom+Function         Bfn.  Coefficient  Atom+Function  
  ----- ------------  ---------------      ----- ------------  ---------------
    90      1.646035  10 H  s               120      1.646009  16 H  s         
    14      1.256631   1 C  py               29     -1.256634   2 C  py        
    84      1.217566   8 C  pz              117     -1.217543  15 C  pz        
    48     -1.208834   4 C  pz               63      1.208835   5 C  pz        
    87      0.984050   9 H  s               102      0.984046  14 H  s         
 
 Vector   35  Occ=0.000000D+00  E= 1.113434D-01
              MO Center=  2.2D-06, -2.4D-06, -2.6D-06, r^2= 1.2D+01
   Bfn.  Coefficient  Atom+Function         Bfn.  Coefficient  Atom+Function  
  ----- ------------  ---------------      ----- ------------  ---------------
    90      1.554866  10 H  s               120     -1.554850  16 H  s         
    87      1.280643   9 H  s               102     -1.280648  14 H  s         
    84      1.228168   8 C  pz              117      1.228158  15 C  pz        
    69     -1.212171   7 H  s                99      1.212171  13 H  s         
    48     -1.117757   4 C  pz               63     -1.117769   5 C  pz        
 
 Vector   36  Occ=0.000000D+00  E= 1.194169D-01
              MO Center= -4.6D-05,  5.7D-05,  3.1D-05, r^2= 1.3D+01
   Bfn.  Coefficient  Atom+Function         Bfn.  Coefficient  Atom+Function  
  ----- ------------  ---------------      ----- ------------  ---------------
    33      1.225016   3 H  s                66     -1.224911   6 H  s         
    39     -1.155238   4 C  s                54      1.155331   5 C  s         
    48      1.096287   4 C  pz               63      1.096280   5 C  pz        
    93     -1.071774  11 H  s               126      1.071712  18 H  s         
    87     -0.966675   9 H  s               102      0.966651  14 H  s         
 
 Vector   37  Occ=0.000000D+00  E= 1.249978D-01
              MO Center=  5.5D-05, -4.9D-05, -2.2D-05, r^2= 1.3D+01
   Bfn.  Coefficient  Atom+Function         Bfn.  Coefficient  Atom+Function  
  ----- ------------  ---------------      ----- ------------  ---------------
    96      1.431407  12 H  s               123      1.431460  17 H  s         
    69     -1.266456   7 H  s                99     -1.266426  13 H  s         
    39      0.989201   4 C  s                54      0.989081   5 C  s         
     6     -0.975073   1 C  s                21     -0.975038   2 C  s         
    83      0.892489   8 C  py              116     -0.892533  15 C  py        
 
 Vector   38  Occ=0.000000D+00  E= 1.340793D-01
              MO Center= -2.9D-05, -1.1D-06,  1.4D-05, r^2= 1.1D+01
   Bfn.  Coefficient  Atom+Function         Bfn.  Coefficient  Atom+Function  
  ----- ------------  ---------------      ----- ------------  ---------------
    82      1.405557   8 C  px              115     -1.405523  15 C  px        
    46      1.308339   4 C  px               61     -1.308305   5 C  px        
    39     -1.240456   4 C  s                54     -1.240431   5 C  s         
     6      0.953634   1 C  s                21      0.953673   2 C  s         
    75      0.913480   8 C  s               108      0.913455  15 C  s         
 
 Vector   39  Occ=0.000000D+00  E= 1.494370D-01
              MO Center= -1.9D-06, -9.3D-07, -2.1D-06, r^2= 1.1D+01
   Bfn.  Coefficient  Atom+Function         Bfn.  Coefficient  Atom+Function  
  ----- ------------  ---------------      ----- ------------  ---------------
     6      2.336942   1 C  s                21     -2.336965   2 C  s         
    47     -1.190713   4 C  py               62     -1.190736   5 C  py        
    39     -1.166072   4 C  s                54      1.166089   5 C  s         
    48      1.046573   4 C  pz               63      1.046558   5 C  pz        
    82      1.051751   8 C  px              115      1.051748  15 C  px        
 
 Vector   40  Occ=0.000000D+00  E= 1.798036D-01
              MO Center=  8.4D-05, -6.0D-06, -1.5D-05, r^2= 1.2D+01
   Bfn.  Coefficient  Atom+Function         Bfn.  Coefficient  Atom+Function  
  ----- ------------  ---------------      ----- ------------  ---------------
     6      2.083636   1 C  s                21     -2.083569   2 C  s         
    46     -1.590055   4 C  px               61     -1.589998   5 C  px        
    82     -1.222316   8 C  px              115     -1.222370  15 C  px        
    48      1.180415   4 C  pz               63      1.180369   5 C  pz        
    14     -0.907778   1 C  py               29     -0.907631   2 C  py        
 
 Vector   41  Occ=0.000000D+00  E= 1.845119D-01
              MO Center= -7.4D-05, -8.7D-06,  2.3D-05, r^2= 1.3D+01
   Bfn.  Coefficient  Atom+Function         Bfn.  Coefficient  Atom+Function  
  ----- ------------  ---------------      ----- ------------  ---------------
    14      1.142088   1 C  py               29     -1.142136   2 C  py        
    82     -0.942611   8 C  px              115      0.942538  15 C  px        
    39      0.937701   4 C  s                54      0.937726   5 C  s         
    33     -0.880346   3 H  s                66     -0.880382   6 H  s         
    46      0.810784   4 C  px               61     -0.810896   5 C  px        
 
 Vector   42  Occ=0.000000D+00  E= 1.999514D-01
              MO Center= -1.3D-05, -5.8D-06, -4.1D-05, r^2= 1.2D+01
   Bfn.  Coefficient  Atom+Function         Bfn.  Coefficient  Atom+Function  
  ----- ------------  ---------------      ----- ------------  ---------------
    14      3.086580   1 C  py               29     -3.086671   2 C  py        
    33     -2.398853   3 H  s                66     -2.398925   6 H  s         
    39      1.630472   4 C  s                54      1.630479   5 C  s         
    46      1.403892   4 C  px               61     -1.404044   5 C  px        
    13      1.374434   1 C  px               28     -1.374386   2 C  px        
 
 Vector   43  Occ=0.000000D+00  E= 2.045764D-01
              MO Center= -6.2D-05,  3.6D-05,  6.5D-05, r^2= 1.0D+01
   Bfn.  Coefficient  Atom+Function         Bfn.  Coefficient  Atom+Function  
  ----- ------------  ---------------      ----- ------------  ---------------
    46      1.504884   4 C  px               61      1.504902   5 C  px        
     6     -1.161341   1 C  s                21      1.161360   2 C  s         
    75      0.807582   8 C  s               108     -0.807576  15 C  s         
    14      0.695216   1 C  py               29      0.695119   2 C  py        
    47     -0.690471   4 C  py               62     -0.690506   5 C  py        
 
 Vector   44  Occ=0.000000D+00  E= 2.103700D-01
              MO Center=  1.2D-04, -3.7D-05, -6.2D-05, r^2= 1.3D+01
   Bfn.  Coefficient  Atom+Function         Bfn.  Coefficient  Atom+Function  
  ----- ------------  ---------------      ----- ------------  ---------------
    84      1.780882   8 C  pz              117     -1.780952  15 C  pz        
    46      1.293595   4 C  px               61     -1.293458   5 C  px        
    14      1.283306   1 C  py               29     -1.283241   2 C  py        
    33     -1.262041   3 H  s                66     -1.262015   6 H  s         
     6     -1.017720   1 C  s                21     -1.017568   2 C  s         
 
 Vector   45  Occ=0.000000D+00  E= 2.212081D-01
              MO Center= -6.4D-06, -3.8D-07,  1.7D-05, r^2= 1.4D+01
   Bfn.  Coefficient  Atom+Function         Bfn.  Coefficient  Atom+Function  
  ----- ------------  ---------------      ----- ------------  ---------------
    83      1.448610   8 C  py              116      1.448692  15 C  py        
    84      0.945883   8 C  pz              117      0.945799  15 C  pz        
    93     -0.668037  11 H  s               126      0.668094  18 H  s         
    47     -0.610652   4 C  py               62     -0.610730   5 C  py        
    92     -0.435552  11 H  s               125      0.435553  18 H  s         
 
 Vector   46  Occ=0.000000D+00  E= 2.389538D-01
              MO Center= -1.1D-05,  7.7D-06,  2.2D-05, r^2= 8.2D+00
   Bfn.  Coefficient  Atom+Function         Bfn.  Coefficient  Atom+Function  
  ----- ------------  ---------------      ----- ------------  ---------------
    84      0.839669   8 C  pz              117      0.839629  15 C  pz        
    46      0.731886   4 C  px               61      0.731894   5 C  px        
    13      0.656253   1 C  px               28      0.656244   2 C  px        
    87     -0.575013   9 H  s               102      0.575007  14 H  s         
    90      0.544780  10 H  s               120     -0.544762  16 H  s         
 
 Vector   47  Occ=0.000000D+00  E= 2.598492D-01
              MO Center= -6.2D-06, -2.4D-05, -2.8D-05, r^2= 9.6D+00
   Bfn.  Coefficient  Atom+Function         Bfn.  Coefficient  Atom+Function  
  ----- ------------  ---------------      ----- ------------  ---------------
    83      1.406967   8 C  py              116     -1.406943  15 C  py        
    47     -1.309040   4 C  py               62      1.308959   5 C  py        
    13      1.296406   1 C  px               28     -1.296594   2 C  px        
    48     -0.885662   4 C  pz               63      0.885609   5 C  pz        
    46     -0.690165   4 C  px               61      0.690123   5 C  px        
 
 Vector   48  Occ=0.000000D+00  E= 2.635632D-01
              MO Center=  2.4D-05,  3.4D-06, -2.6D-05, r^2= 9.3D+00
   Bfn.  Coefficient  Atom+Function         Bfn.  Coefficient  Atom+Function  
  ----- ------------  ---------------      ----- ------------  ---------------
    83      1.058929   8 C  py              116     -1.058961  15 C  py        
    47      0.648831   4 C  py               62     -0.648803   5 C  py        
    96      0.619379  12 H  s               123      0.619417  17 H  s         
    69      0.542603   7 H  s                99      0.542550  13 H  s         
    13      0.537897   1 C  px               28     -0.537747   2 C  px        
 
 Vector   49  Occ=0.000000D+00  E= 2.658736D-01
              MO Center= -3.1D-05,  3.2D-05,  4.8D-05, r^2= 6.7D+00
   Bfn.  Coefficient  Atom+Function         Bfn.  Coefficient  Atom+Function  
  ----- ------------  ---------------      ----- ------------  ---------------
     6      2.783056   1 C  s                21     -2.783062   2 C  s         
    15     -2.586809   1 C  pz               30     -2.586765   2 C  pz        
    13      2.202127   1 C  px               28      2.202134   2 C  px        
    33      1.708333   3 H  s                66     -1.708290   6 H  s         
    14     -1.178879   1 C  py               29     -1.178867   2 C  py        
 
 Vector   50  Occ=0.000000D+00  E= 2.949239D-01
              MO Center= -7.1D-06, -9.2D-06, -9.2D-06, r^2= 8.5D+00
   Bfn.  Coefficient  Atom+Function         Bfn.  Coefficient  Atom+Function  
  ----- ------------  ---------------      ----- ------------  ---------------
    15      2.353233   1 C  pz               30      2.353228   2 C  pz        
    13     -1.667171   1 C  px               28     -1.667169   2 C  px        
     6     -1.494952   1 C  s                21      1.494955   2 C  s         
    69     -1.348178   7 H  s                99      1.348172  13 H  s         
    48      1.122831   4 C  pz               63      1.122813   5 C  pz        
 
 Vector   51  Occ=0.000000D+00  E= 3.319677D-01
              MO Center= -2.5D-06, -8.6D-07,  6.8D-06, r^2= 8.2D+00
   Bfn.  Coefficient  Atom+Function         Bfn.  Coefficient  Atom+Function  
  ----- ------------  ---------------      ----- ------------  ---------------
    14      1.607783   1 C  py               29     -1.607784   2 C  py        
    39      1.430046   4 C  s                54      1.430021   5 C  s         
    33     -1.221637   3 H  s                66     -1.221656   6 H  s         
    75     -0.823832   8 C  s               108     -0.823817  15 C  s         
    95      0.572055  12 H  s               122      0.572061  17 H  s         
 
 Vector   52  Occ=0.000000D+00  E= 3.579233D-01
              MO Center=  1.4D-05,  2.3D-05, -4.7D-05, r^2= 7.3D+00
   Bfn.  Coefficient  Atom+Function         Bfn.  Coefficient  Atom+Function  
  ----- ------------  ---------------      ----- ------------  ---------------
    15      2.806656   1 C  pz               30     -2.806694   2 C  pz        
    47     -2.212417   4 C  py               62      2.212424   5 C  py        
     6      1.651328   1 C  s                21      1.651239   2 C  s         
    39     -1.259164   4 C  s                54     -1.259090   5 C  s         
    83      1.111153   8 C  py              116     -1.111193  15 C  py        
 
 Vector   53  Occ=0.000000D+00  E= 3.658024D-01
              MO Center=  3.5D-06, -1.0D-05,  8.9D-06, r^2= 8.0D+00
   Bfn.  Coefficient  Atom+Function         Bfn.  Coefficient  Atom+Function  
  ----- ------------  ---------------      ----- ------------  ---------------
    47      1.479124   4 C  py               62      1.479327   5 C  py        
    69      1.419198   7 H  s                99     -1.419284  13 H  s         
    82     -1.022806   8 C  px              115     -1.022820  15 C  px        
    14      0.894993   1 C  py               29      0.895006   2 C  py        
    33     -0.818493   3 H  s                66      0.818481   6 H  s         
 
 Vector   54  Occ=0.000000D+00  E= 3.829935D-01
              MO Center=  1.4D-06,  2.0D-06,  2.3D-05, r^2= 9.7D+00
   Bfn.  Coefficient  Atom+Function         Bfn.  Coefficient  Atom+Function  
  ----- ------------  ---------------      ----- ------------  ---------------
    48     -3.688733   4 C  pz               63     -3.688650   5 C  pz        
    14      3.440262   1 C  py               29      3.440188   2 C  py        
     6     -3.008087   1 C  s                21      3.008091   2 C  s         
    47     -2.900215   4 C  py               62     -2.900227   5 C  py        
    87      2.280339   9 H  s               102     -2.280289  14 H  s         
 
 Vector   55  Occ=0.000000D+00  E= 3.876221D-01
              MO Center=  3.7D-04, -1.4D-04, -2.1D-05, r^2= 8.9D+00
   Bfn.  Coefficient  Atom+Function         Bfn.  Coefficient  Atom+Function  
  ----- ------------  ---------------      ----- ------------  ---------------
    69      1.580296   7 H  s                99     -1.579198  13 H  s         
    14      1.276567   1 C  py               29      1.277935   2 C  py        
    33     -1.225570   3 H  s                66      1.226386   6 H  s         
    13      1.144572   1 C  px               28      1.144364   2 C  px        
     6      1.005788   1 C  s                21     -1.006201   2 C  s         
 
 Vector   56  Occ=0.000000D+00  E= 3.880219D-01
              MO Center= -3.9D-04,  1.4D-04,  3.7D-05, r^2= 1.0D+01
   Bfn.  Coefficient  Atom+Function         Bfn.  Coefficient  Atom+Function  
  ----- ------------  ---------------      ----- ------------  ---------------
    14      2.264367   1 C  py               29     -2.263535   2 C  py        
    46      2.019318   4 C  px               61     -2.019091   5 C  px        
    47     -1.946499   4 C  py               62      1.946966   5 C  py        
    69     -1.760163   7 H  s                99     -1.761106  13 H  s         
    82      1.542437   8 C  px              115     -1.541920  15 C  px        
 
 Vector   57  Occ=0.000000D+00  E= 3.942333D-01
              MO Center= -1.0D-05, -1.9D-06,  3.3D-06, r^2= 9.2D+00
   Bfn.  Coefficient  Atom+Function         Bfn.  Coefficient  Atom+Function  
  ----- ------------  ---------------      ----- ------------  ---------------
     6      4.617457   1 C  s                21     -4.617451   2 C  s         
    15     -3.977899   1 C  pz               30     -3.977841   2 C  pz        
    13      3.786883   1 C  px               28      3.786888   2 C  px        
    33      3.288607   3 H  s                66     -3.288641   6 H  s         
    14     -3.092559   1 C  py               29     -3.092617   2 C  py        
 
 Vector   58  Occ=0.000000D+00  E= 4.147244D-01
              MO Center= -1.8D-07,  4.9D-06,  9.2D-06, r^2= 1.2D+01
   Bfn.  Coefficient  Atom+Function         Bfn.  Coefficient  Atom+Function  
  ----- ------------  ---------------      ----- ------------  ---------------
    87     -1.855910   9 H  s               102     -1.855921  14 H  s         
    69      1.822647   7 H  s                99      1.822637  13 H  s         
    93     -1.630617  11 H  s               126     -1.630602  18 H  s         
    90      1.484312  10 H  s               120      1.484338  16 H  s         
    48      1.177033   4 C  pz               63     -1.177047   5 C  pz        
 
 Vector   59  Occ=0.000000D+00  E= 4.167652D-01
              MO Center= -2.6D-05, -6.5D-06,  1.3D-05, r^2= 1.2D+01
   Bfn.  Coefficient  Atom+Function         Bfn.  Coefficient  Atom+Function  
  ----- ------------  ---------------      ----- ------------  ---------------
    46      2.570104   4 C  px               61      2.570116   5 C  px        
    15     -1.697146   1 C  pz               30     -1.697113   2 C  pz        
    47      1.646453   4 C  py               62      1.646442   5 C  py        
    96      1.569252  12 H  s               123     -1.569184  17 H  s         
     6     -1.384761   1 C  s                21      1.384758   2 C  s         
 
 Vector   60  Occ=0.000000D+00  E= 4.206580D-01
              MO Center=  4.4D-05,  2.5D-06, -1.7D-05, r^2= 1.3D+01
   Bfn.  Coefficient  Atom+Function         Bfn.  Coefficient  Atom+Function  
  ----- ------------  ---------------      ----- ------------  ---------------
    14      5.468488   1 C  py               29     -5.468564   2 C  py        
    39      3.753949   4 C  s                54      3.753945   5 C  s         
    33     -3.490012   3 H  s                66     -3.490070   6 H  s         
    13      2.787505   1 C  px               28     -2.787491   2 C  px        
    96      2.314485  12 H  s               123      2.314525  17 H  s         
 
 Vector   61  Occ=0.000000D+00  E= 4.355221D-01
              MO Center= -6.1D-06, -2.9D-06,  1.2D-05, r^2= 1.1D+01
   Bfn.  Coefficient  Atom+Function         Bfn.  Coefficient  Atom+Function  
  ----- ------------  ---------------      ----- ------------  ---------------
    84      1.963625   8 C  pz               90      1.970782  10 H  s         
   117      1.963632  15 C  pz              120     -1.970764  16 H  s         
    96     -1.684597  12 H  s               123      1.684600  17 H  s         
    46      1.522155   4 C  px               61      1.522173   5 C  px        
    87     -1.360833   9 H  s               102      1.360752  14 H  s         
 
 Vector   62  Occ=0.000000D+00  E= 4.456561D-01
              MO Center= -1.1D-04,  2.8D-05, -3.5D-05, r^2= 1.0D+01
   Bfn.  Coefficient  Atom+Function         Bfn.  Coefficient  Atom+Function  
  ----- ------------  ---------------      ----- ------------  ---------------
    14      4.597148   1 C  py               29     -4.597341   2 C  py        
    48     -2.591232   4 C  pz               63      2.591250   5 C  pz        
    33     -2.507590   3 H  s                66     -2.507903   6 H  s         
    87      2.168207   9 H  s               102      2.168326  14 H  s         
    84      1.831583   8 C  pz              117     -1.831525  15 C  pz        
 
 Vector   63  Occ=0.000000D+00  E= 4.476162D-01
              MO Center=  9.2D-05, -2.7D-06,  2.2D-05, r^2= 1.3D+01
   Bfn.  Coefficient  Atom+Function         Bfn.  Coefficient  Atom+Function  
  ----- ------------  ---------------      ----- ------------  ---------------
    93      2.322613  11 H  s               126     -2.322788  18 H  s         
    33     -1.963274   3 H  s                66      1.962738   6 H  s         
    83     -1.856043   8 C  py              116     -1.856084  15 C  py        
    14      1.224422   1 C  py               29      1.223500   2 C  py        
    96     -1.213515  12 H  s               123      1.213383  17 H  s         
 
 Vector   64  Occ=0.000000D+00  E= 4.577756D-01
              MO Center=  2.2D-05, -7.0D-07, -4.4D-06, r^2= 1.1D+01
   Bfn.  Coefficient  Atom+Function         Bfn.  Coefficient  Atom+Function  
  ----- ------------  ---------------      ----- ------------  ---------------
    39      2.337613   4 C  s                54      2.337558   5 C  s         
    14      2.162163   1 C  py               29     -2.162179   2 C  py        
    13      2.087931   1 C  px               28     -2.087925   2 C  px        
    33     -1.350871   3 H  s                48      1.347341   4 C  pz        
    63     -1.347314   5 C  pz               66     -1.350883   6 H  s         
 
 Vector   65  Occ=0.000000D+00  E= 4.706476D-01
              MO Center= -2.5D-05, -2.2D-06,  2.5D-06, r^2= 8.4D+00
   Bfn.  Coefficient  Atom+Function         Bfn.  Coefficient  Atom+Function  
  ----- ------------  ---------------      ----- ------------  ---------------
    39      1.829527   4 C  s                54     -1.829583   5 C  s         
    46      1.560553   4 C  px               61      1.560589   5 C  px        
    15     -1.382920   1 C  pz               30     -1.382939   2 C  pz        
    38     -1.103590   4 C  s                53      1.103594   5 C  s         
    75      0.955342   8 C  s               108     -0.955295  15 C  s         
 
 Vector   66  Occ=0.000000D+00  E= 4.827262D-01
              MO Center=  2.9D-05,  1.5D-05, -3.7D-05, r^2= 1.0D+01
   Bfn.  Coefficient  Atom+Function         Bfn.  Coefficient  Atom+Function  
  ----- ------------  ---------------      ----- ------------  ---------------
    39      3.461645   4 C  s                54      3.461672   5 C  s         
    14      1.995818   1 C  py               29     -1.995968   2 C  py        
    38     -1.420299   4 C  s                53     -1.420339   5 C  s         
    69     -1.322488   7 H  s                99     -1.322587  13 H  s         
    13      1.109505   1 C  px               28     -1.109233   2 C  px        
 
 Vector   67  Occ=0.000000D+00  E= 4.891266D-01
              MO Center=  3.6D-05,  6.3D-06,  2.3D-05, r^2= 1.3D+01
   Bfn.  Coefficient  Atom+Function         Bfn.  Coefficient  Atom+Function  
  ----- ------------  ---------------      ----- ------------  ---------------
    69      1.791760   7 H  s                99      1.791732  13 H  s         
    75      1.605316   8 C  s               108      1.605435  15 C  s         
    47      1.462316   4 C  py               62     -1.462288   5 C  py        
    14      1.389396   1 C  py               29     -1.389467   2 C  py        
    33     -1.316700   3 H  s                66     -1.316775   6 H  s         
 
 Vector   68  Occ=0.000000D+00  E= 4.898363D-01
              MO Center= -3.3D-05, -2.0D-05,  1.4D-05, r^2= 1.1D+01
   Bfn.  Coefficient  Atom+Function         Bfn.  Coefficient  Atom+Function  
  ----- ------------  ---------------      ----- ------------  ---------------
    13      3.380162   1 C  px               28      3.380385   2 C  px        
    15     -2.929259   1 C  pz               30     -2.929362   2 C  pz        
     6      2.300423   1 C  s                21     -2.300405   2 C  s         
    14     -1.933807   1 C  py               29     -1.933546   2 C  py        
    47      1.913986   4 C  py               62      1.914103   5 C  py        
 
 Vector   69  Occ=0.000000D+00  E= 4.935161D-01
              MO Center= -3.2D-05,  3.1D-05,  2.6D-05, r^2= 8.7D+00
   Bfn.  Coefficient  Atom+Function         Bfn.  Coefficient  Atom+Function  
  ----- ------------  ---------------      ----- ------------  ---------------
    14      4.842978   1 C  py               29     -4.842929   2 C  py        
    33     -3.771264   3 H  s                66     -3.771210   6 H  s         
     6      1.550954   1 C  s                21      1.551028   2 C  s         
    46      1.523289   4 C  px               61     -1.523301   5 C  px        
    39      1.141629   4 C  s                48     -1.145370   4 C  pz        
 
 Vector   70  Occ=0.000000D+00  E= 4.981928D-01
              MO Center=  2.5D-05, -6.0D-05, -2.4D-05, r^2= 1.4D+01
   Bfn.  Coefficient  Atom+Function         Bfn.  Coefficient  Atom+Function  
  ----- ------------  ---------------      ----- ------------  ---------------
    75      2.803026   8 C  s               108     -2.802948  15 C  s         
    74     -1.550231   8 C  s               107      1.550224  15 C  s         
    96     -1.438277  12 H  s               123      1.438248  17 H  s         
    33      1.299964   3 H  s                39     -1.294586   4 C  s         
    54      1.294697   5 C  s                66     -1.300396   6 H  s         
 
 Vector   71  Occ=0.000000D+00  E= 5.389546D-01
              MO Center= -3.1D-05, -1.4D-06,  1.3D-05, r^2= 8.1D+00
   Bfn.  Coefficient  Atom+Function         Bfn.  Coefficient  Atom+Function  
  ----- ------------  ---------------      ----- ------------  ---------------
     6      3.937392   1 C  s                21      3.937294   2 C  s         
    14     -3.134215   1 C  py               29      3.134198   2 C  py        
    39     -2.939701   4 C  s                54     -2.939651   5 C  s         
    13     -2.812819   1 C  px               28      2.812810   2 C  px        
    15      2.242750   1 C  pz               30     -2.242729   2 C  pz        
 
 Vector   72  Occ=0.000000D+00  E= 5.556374D-01
              MO Center=  2.3D-05,  5.3D-06, -1.8D-05, r^2= 5.3D+00
   Bfn.  Coefficient  Atom+Function         Bfn.  Coefficient  Atom+Function  
  ----- ------------  ---------------      ----- ------------  ---------------
     6      2.515216   1 C  s                21     -2.515295   2 C  s         
    48      1.159130   4 C  pz               63      1.159110   5 C  pz        
    69     -1.056589   7 H  s                99      1.056611  13 H  s         
    75      1.041128   8 C  s               108     -1.041194  15 C  s         
    13     -1.012457   1 C  px               28     -1.012514   2 C  px        
 
 Vector   73  Occ=0.000000D+00  E= 6.197173D-01
              MO Center=  7.8D-06, -3.9D-07, -1.5D-06, r^2= 9.8D+00
   Bfn.  Coefficient  Atom+Function         Bfn.  Coefficient  Atom+Function  
  ----- ------------  ---------------      ----- ------------  ---------------
    75      5.188819   8 C  s               108     -5.188808  15 C  s         
     6      5.060223   1 C  s                21     -5.060257   2 C  s         
    15     -3.293175   1 C  pz               30     -3.293069   2 C  pz        
    13      2.982241   1 C  px               28      2.982150   2 C  px        
    14     -1.812253   1 C  py               29     -1.812555   2 C  py        
 
 Vector   74  Occ=0.000000D+00  E= 6.437067D-01
              MO Center=  3.7D-06,  8.8D-07, -1.5D-05, r^2= 5.8D+00
   Bfn.  Coefficient  Atom+Function         Bfn.  Coefficient  Atom+Function  
  ----- ------------  ---------------      ----- ------------  ---------------
    14      8.969083   1 C  py               29     -8.969035   2 C  py        
    33     -4.084079   3 H  s                66     -4.084038   6 H  s         
    39      3.591539   4 C  s                54      3.591506   5 C  s         
    75      2.288158   8 C  s               108      2.288332  15 C  s         
    13      2.051815   1 C  px               28     -2.051940   2 C  px        
 
 Vector   75  Occ=0.000000D+00  E= 7.020022D-01
              MO Center= -8.2D-06, -1.6D-06,  7.8D-06, r^2= 8.6D+00
   Bfn.  Coefficient  Atom+Function         Bfn.  Coefficient  Atom+Function  
  ----- ------------  ---------------      ----- ------------  ---------------
     6      4.810333   1 C  s                21      4.810357   2 C  s         
    39     -3.466469   4 C  s                54     -3.466456   5 C  s         
    75     -2.929925   8 C  s               108     -2.929875  15 C  s         
    13     -1.913620   1 C  px               28      1.913623   2 C  px        
     5     -1.529342   1 C  s                20     -1.529348   2 C  s         
 
 Vector   76  Occ=0.000000D+00  E= 7.202808D-01
              MO Center= -2.7D-05, -4.2D-06,  1.1D-05, r^2= 9.6D+00
   Bfn.  Coefficient  Atom+Function         Bfn.  Coefficient  Atom+Function  
  ----- ------------  ---------------      ----- ------------  ---------------
    39      9.055278   4 C  s                54      9.055212   5 C  s         
    75     -5.718960   8 C  s               108     -5.718851  15 C  s         
    14      2.998098   1 C  py               29     -2.998114   2 C  py        
    38     -1.836412   4 C  s                53     -1.836397   5 C  s         
     6     -1.812959   1 C  s                21     -1.813031   2 C  s         
 
 Vector   77  Occ=0.000000D+00  E= 7.755974D-01
              MO Center=  9.3D-06,  1.6D-06, -1.1D-05, r^2= 6.9D+00
   Bfn.  Coefficient  Atom+Function         Bfn.  Coefficient  Atom+Function  
  ----- ------------  ---------------      ----- ------------  ---------------
     6     13.802316   1 C  s                21    -13.802260   2 C  s         
    14     -4.287039   1 C  py               29     -4.287010   2 C  py        
    15     -3.672422   1 C  pz               30     -3.672438   2 C  pz        
    75     -3.085495   8 C  s               108      3.085633  15 C  s         
    13      3.064301   1 C  px               28      3.064322   2 C  px        
 
 Vector   78  Occ=0.000000D+00  E= 7.947818D-01
              MO Center=  7.2D-06,  2.5D-06, -1.4D-05, r^2= 9.1D+00
   Bfn.  Coefficient  Atom+Function         Bfn.  Coefficient  Atom+Function  
  ----- ------------  ---------------      ----- ------------  ---------------
    39     11.046458   4 C  s                54    -11.046552   5 C  s         
    75     -3.571014   8 C  s               108      3.571029  15 C  s         
    13      3.324373   1 C  px               28      3.324421   2 C  px        
     6     -3.161272   1 C  s                21      3.161333   2 C  s         
    15     -2.982260   1 C  pz               30     -2.982293   2 C  pz        
 
 Vector   79  Occ=0.000000D+00  E= 1.371612D+00
              MO Center= -4.3D-06,  1.1D-07,  1.5D-05, r^2= 6.0D+00
   Bfn.  Coefficient  Atom+Function         Bfn.  Coefficient  Atom+Function  
  ----- ------------  ---------------      ----- ------------  ---------------
    43      1.556180   4 C  px               58     -1.556144   5 C  px        
    75      1.355325   8 C  s               108      1.355282  15 C  s         
    14      1.330891   1 C  py               29     -1.330879   2 C  py        
    45     -0.796038   4 C  pz               60      0.796057   5 C  pz        
    79      0.774840   8 C  px              112     -0.774828  15 C  px        
 
 Vector   80  Occ=0.000000D+00  E= 1.380510D+00
              MO Center= -8.9D-07,  1.8D-06, -1.2D-05, r^2= 4.4D+00
   Bfn.  Coefficient  Atom+Function         Bfn.  Coefficient  Atom+Function  
  ----- ------------  ---------------      ----- ------------  ---------------
    10      0.818833   1 C  px               25      0.818873   2 C  px        
    39     -0.821136   4 C  s                54      0.821124   5 C  s         
    80     -0.572449   8 C  py              113     -0.572459  15 C  py        
    11     -0.563891   1 C  py               26     -0.563867   2 C  py        
     7     -0.557865   1 C  px               22     -0.557885   2 C  px        
 
 Vector   81  Occ=0.000000D+00  E= 1.403447D+00
              MO Center=  2.7D-05,  3.2D-06, -2.1D-05, r^2= 4.9D+00
   Bfn.  Coefficient  Atom+Function         Bfn.  Coefficient  Atom+Function  
  ----- ------------  ---------------      ----- ------------  ---------------
    39      0.946049   4 C  s                54     -0.946084   5 C  s         
    79     -0.937317   8 C  px              112     -0.937345  15 C  px        
    15     -0.734007   1 C  pz               30     -0.734018   2 C  pz        
    12      0.691571   1 C  pz               27      0.691577   2 C  pz        
    44      0.656778   4 C  py               59      0.656807   5 C  py        
 
 Vector   82  Occ=0.000000D+00  E= 1.425931D+00
              MO Center= -5.8D-05, -1.0D-05,  3.1D-05, r^2= 8.5D+00
   Bfn.  Coefficient  Atom+Function         Bfn.  Coefficient  Atom+Function  
  ----- ------------  ---------------      ----- ------------  ---------------
    39      1.513434   4 C  s                54      1.513394   5 C  s         
    79     -1.148062   8 C  px              112      1.147996  15 C  px        
    45     -0.906982   4 C  pz               60      0.906958   5 C  pz        
    82      0.876651   8 C  px              115     -0.876607  15 C  px        
    44      0.799546   4 C  py               59     -0.799550   5 C  py        
 
 Vector   83  Occ=0.000000D+00  E= 1.432947D+00
              MO Center=  7.7D-05,  1.4D-05, -3.6D-05, r^2= 7.3D+00
   Bfn.  Coefficient  Atom+Function         Bfn.  Coefficient  Atom+Function  
  ----- ------------  ---------------      ----- ------------  ---------------
    79     -1.351929   8 C  px              112     -1.352003  15 C  px        
    39      1.261708   4 C  s                54     -1.261768   5 C  s         
    43     -1.251908   4 C  px               58     -1.251947   5 C  px        
    75     -1.121155   8 C  s               108      1.121202  15 C  s         
     6      0.928874   1 C  s                21     -0.928854   2 C  s         
 
 Vector   84  Occ=0.000000D+00  E= 1.437171D+00
              MO Center= -3.4D-05, -5.8D-06,  1.3D-05, r^2= 7.7D+00
   Bfn.  Coefficient  Atom+Function         Bfn.  Coefficient  Atom+Function  
  ----- ------------  ---------------      ----- ------------  ---------------
    80     -0.949618   8 C  py              113      0.949611  15 C  py        
    10      0.900482   1 C  px               25     -0.900466   2 C  px        
    79     -0.854610   8 C  px              112      0.854570  15 C  px        
    83      0.843548   8 C  py              116     -0.843550  15 C  py        
    96      0.708752  12 H  s               123      0.708733  17 H  s         
 
 Vector   85  Occ=0.000000D+00  E= 1.453970D+00
              MO Center=  1.3D-05,  7.5D-06, -1.5D-05, r^2= 3.7D+00
   Bfn.  Coefficient  Atom+Function         Bfn.  Coefficient  Atom+Function  
  ----- ------------  ---------------      ----- ------------  ---------------
    15     -2.178278   1 C  pz               30     -2.178276   2 C  pz        
    13      2.009063   1 C  px               28      2.009129   2 C  px        
    12      1.608112   1 C  pz               27      1.608094   2 C  pz        
    10     -1.501712   1 C  px               25     -1.501762   2 C  px        
    47      1.262969   4 C  py               62      1.263014   5 C  py        
 
 Vector   86  Occ=0.000000D+00  E= 1.457383D+00
              MO Center= -3.2D-05, -1.2D-05,  1.4D-05, r^2= 9.6D+00
   Bfn.  Coefficient  Atom+Function         Bfn.  Coefficient  Atom+Function  
  ----- ------------  ---------------      ----- ------------  ---------------
    81      1.151911   8 C  pz              114      1.151906  15 C  pz        
    84     -0.853501   8 C  pz              117     -0.853498  15 C  pz        
    80      0.785278   8 C  py              113      0.785255  15 C  py        
    90     -0.777273  10 H  s               120      0.777277  16 H  s         
    78     -0.692571   8 C  pz              111     -0.692569  15 C  pz        
 
 Vector   87  Occ=0.000000D+00  E= 1.459577D+00
              MO Center=  1.5D-05, -6.8D-07, -2.9D-06, r^2= 6.9D+00
   Bfn.  Coefficient  Atom+Function         Bfn.  Coefficient  Atom+Function  
  ----- ------------  ---------------      ----- ------------  ---------------
    13      1.162127   1 C  px               28     -1.162048   2 C  px        
    47      0.939599   4 C  py               62     -0.939553   5 C  py        
    81     -0.920981   8 C  pz              114      0.921002  15 C  pz        
    14      0.836216   1 C  py               29     -0.836189   2 C  py        
    69      0.820575   7 H  s                99      0.820532  13 H  s         
 
 Vector   88  Occ=0.000000D+00  E= 1.507572D+00
              MO Center= -3.0D-06,  5.9D-07,  1.5D-06, r^2= 7.0D+00
   Bfn.  Coefficient  Atom+Function         Bfn.  Coefficient  Atom+Function  
  ----- ------------  ---------------      ----- ------------  ---------------
    81      1.186902   8 C  pz              114     -1.186898  15 C  pz        
    14      1.030233   1 C  py               29     -1.030243   2 C  py        
    33     -0.908410   3 H  s                66     -0.908416   6 H  s         
    84     -0.889248   8 C  pz              117      0.889250  15 C  pz        
    12     -0.708483   1 C  pz               27      0.708462   2 C  pz        
 
 Vector   89  Occ=0.000000D+00  E= 1.533653D+00
              MO Center= -3.0D-05, -4.2D-06,  1.4D-05, r^2= 7.7D+00
   Bfn.  Coefficient  Atom+Function         Bfn.  Coefficient  Atom+Function  
  ----- ------------  ---------------      ----- ------------  ---------------
     6      2.142517   1 C  s                21     -2.142526   2 C  s         
    14     -1.706027   1 C  py               29     -1.705979   2 C  py        
    33      1.350985   3 H  s                66     -1.350957   6 H  s         
    80     -1.237165   8 C  py              113     -1.237142  15 C  py        
    83      1.110365   8 C  py              116      1.110349  15 C  py        
 
 Vector   90  Occ=0.000000D+00  E= 1.578994D+00
              MO Center=  4.8D-05,  1.1D-05, -2.4D-05, r^2= 8.2D+00
   Bfn.  Coefficient  Atom+Function         Bfn.  Coefficient  Atom+Function  
  ----- ------------  ---------------      ----- ------------  ---------------
    14      1.385569   1 C  py               29     -1.385596   2 C  py        
    44     -1.019464   4 C  py               59      1.019449   5 C  py        
    47      0.989830   4 C  py               62     -0.989821   5 C  py        
    80      0.994144   8 C  py              113     -0.994159  15 C  py        
    33     -0.937431   3 H  s                66     -0.937457   6 H  s         
 
 Vector   91  Occ=0.000000D+00  E= 1.594164D+00
              MO Center= -2.6D-05, -7.2D-06,  1.8D-05, r^2= 6.6D+00
   Bfn.  Coefficient  Atom+Function         Bfn.  Coefficient  Atom+Function  
  ----- ------------  ---------------      ----- ------------  ---------------
    45      1.304644   4 C  pz               60      1.304643   5 C  pz        
    48     -1.048511   4 C  pz               63     -1.048507   5 C  pz        
    13      1.003888   1 C  px               28      1.003896   2 C  px        
     6      0.910052   1 C  s                21     -0.910075   2 C  s         
    14     -0.903819   1 C  py               29     -0.903819   2 C  py        
 
 Vector   92  Occ=0.000000D+00  E= 1.643420D+00
              MO Center=  1.5D-05,  1.5D-06, -3.5D-06, r^2= 6.7D+00
   Bfn.  Coefficient  Atom+Function         Bfn.  Coefficient  Atom+Function  
  ----- ------------  ---------------      ----- ------------  ---------------
    83     -0.904759   8 C  py              116      0.904781  15 C  py        
    12      0.886885   1 C  pz               27     -0.886891   2 C  pz        
    15     -0.879781   1 C  pz               30      0.879789   2 C  pz        
    45     -0.866133   4 C  pz               60      0.866122   5 C  pz        
    14      0.855169   1 C  py               29     -0.855175   2 C  py        
 
 Vector   93  Occ=0.000000D+00  E= 1.670930D+00
              MO Center= -1.1D-05,  1.4D-06,  9.6D-06, r^2= 6.4D+00
   Bfn.  Coefficient  Atom+Function         Bfn.  Coefficient  Atom+Function  
  ----- ------------  ---------------      ----- ------------  ---------------
    47     -1.405705   4 C  py               62     -1.405718   5 C  py        
    14      1.378149   1 C  py               29      1.378144   2 C  py        
[...]
 Vector  106  Occ=0.000000D+00  E= 2.365652D+00
              MO Center=  1.6D-05,  1.2D-05, -2.6D-05, r^2= 7.3D+00
   Bfn.  Coefficient  Atom+Function         Bfn.  Coefficient  Atom+Function  
  ----- ------------  ---------------      ----- ------------  ---------------
    68      1.043115   7 H  s                98      1.043129  13 H  s         
    86     -0.956185   9 H  s               101     -0.956205  14 H  s         
    39      0.859817   4 C  s                54      0.859795   5 C  s         
    15     -0.749857   1 C  pz               30      0.749884   2 C  pz        
    67     -0.752919   7 H  s                97     -0.752930  13 H  s         
 
 Vector  107  Occ=0.000000D+00  E= 2.407736D+00
              MO Center= -1.2D-05, -1.2D-05,  1.7D-05, r^2= 7.0D+00
   Bfn.  Coefficient  Atom+Function         Bfn.  Coefficient  Atom+Function  
  ----- ------------  ---------------      ----- ------------  ---------------
    68      1.167551   7 H  s                98     -1.167537  13 H  s         
    86     -0.898342   9 H  s               101      0.898331  14 H  s         
    47      0.889461   4 C  py               62      0.889466   5 C  py        
    48      0.872765   4 C  pz               63      0.872751   5 C  pz        
    67     -0.810750   7 H  s                97      0.810740  13 H  s         
 
 Vector  108  Occ=0.000000D+00  E= 2.434983D+00
              MO Center= -5.0D-06,  4.0D-06, -1.8D-06, r^2= 4.2D+00
   Bfn.  Coefficient  Atom+Function         Bfn.  Coefficient  Atom+Function  
  ----- ------------  ---------------      ----- ------------  ---------------
    14      3.441661   1 C  py               29     -3.441658   2 C  py        
     5      2.268185   1 C  s                20      2.268197   2 C  s         
     4     -1.883256   1 C  s                19     -1.883267   2 C  s         
    33     -1.230162   3 H  s                66     -1.230165   6 H  s         
    32     -0.951134   3 H  s                65     -0.951126   6 H  s         
 
 Vector  109  Occ=0.000000D+00  E= 2.594310D+00
              MO Center= -8.9D-06,  4.6D-06, -1.9D-07, r^2= 3.9D+00
   Bfn.  Coefficient  Atom+Function         Bfn.  Coefficient  Atom+Function  
  ----- ------------  ---------------      ----- ------------  ---------------
     6     -2.984489   1 C  s                21     -2.984515   2 C  s         
     5      2.787839   1 C  s                20      2.787837   2 C  s         
    14     -2.500114   1 C  py               29      2.500116   2 C  py        
     4     -2.055848   1 C  s                19     -2.055845   2 C  s         
    33      1.295857   3 H  s                66      1.295861   6 H  s         
 
 Vector  110  Occ=0.000000D+00  E= 2.675561D+00
              MO Center= -3.0D-05, -9.5D-06,  2.0D-05, r^2= 1.0D+01
   Bfn.  Coefficient  Atom+Function         Bfn.  Coefficient  Atom+Function  
  ----- ------------  ---------------      ----- ------------  ---------------
    75     -3.280641   8 C  s               108      3.280618  15 C  s         
    74      3.244893   8 C  s               107     -3.244863  15 C  s         
    73     -2.391341   8 C  s               106      2.391320  15 C  s         
    39     -1.981092   4 C  s                54      1.981032   5 C  s         
     6      1.740271   1 C  s                21     -1.740170   2 C  s         
 
 Vector  111  Occ=0.000000D+00  E= 2.694019D+00
              MO Center=  4.1D-05,  6.1D-06, -1.7D-05, r^2= 9.3D+00
   Bfn.  Coefficient  Atom+Function         Bfn.  Coefficient  Atom+Function  
  ----- ------------  ---------------      ----- ------------  ---------------
    75     -3.136406   8 C  s               108     -3.136449  15 C  s         
    74      2.926052   8 C  s               107      2.926105  15 C  s         
    39     -2.290039   4 C  s                54     -2.290104   5 C  s         
    73     -2.118033   8 C  s               106     -2.118074  15 C  s         
     6      1.899873   1 C  s                21      1.899876   2 C  s         
 
 Vector  112  Occ=0.000000D+00  E= 2.729445D+00
              MO Center= -1.4D-05, -2.3D-06,  1.1D-05, r^2= 4.0D+00
   Bfn.  Coefficient  Atom+Function         Bfn.  Coefficient  Atom+Function  
  ----- ------------  ---------------      ----- ------------  ---------------
     6      6.518565   1 C  s                21     -6.518577   2 C  s         
     5     -4.061379   1 C  s                20      4.061389   2 C  s         
    39      2.777056   4 C  s                54     -2.776963   5 C  s         
    15     -2.569944   1 C  pz               30     -2.569932   2 C  pz        
     4      2.520948   1 C  s                19     -2.520954   2 C  s         
 
 Vector  113  Occ=0.000000D+00  E= 2.826503D+00
              MO Center=  1.3D-04,  5.9D-05, -1.1D-04, r^2= 5.8D+00
   Bfn.  Coefficient  Atom+Function         Bfn.  Coefficient  Atom+Function  
  ----- ------------  ---------------      ----- ------------  ---------------
    39      6.052308   4 C  s                54     -6.052847   5 C  s         
     6     -5.289183   1 C  s                21      5.289317   2 C  s         
    38     -3.432617   4 C  s                53      3.432949   5 C  s         
     5      2.524783   1 C  s                20     -2.524838   2 C  s         
    75     -2.295910   8 C  s               108      2.296206  15 C  s         
 
 Vector  114  Occ=0.000000D+00  E= 2.829713D+00
              MO Center= -1.2D-04, -5.9D-05,  8.9D-05, r^2= 7.3D+00
   Bfn.  Coefficient  Atom+Function         Bfn.  Coefficient  Atom+Function  
  ----- ------------  ---------------      ----- ------------  ---------------
    39      5.855124   4 C  s                54      5.854633   5 C  s         
    38     -3.607879   4 C  s                53     -3.607604   5 C  s         
    75     -3.369977   8 C  s               108     -3.369784  15 C  s         
    37      2.336876   4 C  s                52      2.336701   5 C  s         
    14      2.225998   1 C  py               29     -2.225825   2 C  py        
 
 Vector  115  Occ=0.000000D+00  E= 1.152481D+01
              MO Center= -1.9D-06,  2.1D-06, -3.3D-06, r^2= 1.4D+00
   Bfn.  Coefficient  Atom+Function         Bfn.  Coefficient  Atom+Function  
  ----- ------------  ---------------      ----- ------------  ---------------
     4     -2.271525   1 C  s                19     -2.271523   2 C  s         
     3      2.210482   1 C  s                18      2.210480   2 C  s         
     5      1.925037   1 C  s                20      1.925035   2 C  s         
     6     -1.234607   1 C  s                21     -1.234606   2 C  s         
     2     -1.161578   1 C  s                17     -1.161577   2 C  s         
 
 Vector  116  Occ=0.000000D+00  E= 1.167917D+01
              MO Center= -1.8D-06, -4.1D-06,  2.6D-06, r^2= 9.6D+00
   Bfn.  Coefficient  Atom+Function         Bfn.  Coefficient  Atom+Function  
  ----- ------------  ---------------      ----- ------------  ---------------
    73     -2.380416   8 C  s               106      2.380414  15 C  s         
    72      2.305763   8 C  s               105     -2.305761  15 C  s         
    74      2.085939   8 C  s               107     -2.085937  15 C  s         
    75     -1.536039   8 C  s               108      1.536039  15 C  s         
    71     -1.207479   8 C  s               104      1.207478  15 C  s         
 
 Vector  117  Occ=0.000000D+00  E= 1.169677D+01
              MO Center=  1.6D-06, -3.4D-06,  1.2D-06, r^2= 9.2D+00
   Bfn.  Coefficient  Atom+Function         Bfn.  Coefficient  Atom+Function  
  ----- ------------  ---------------      ----- ------------  ---------------
    73     -2.344236   8 C  s               106     -2.344238  15 C  s         
    72      2.261418   8 C  s               105      2.261420  15 C  s         
    74      2.075469   8 C  s               107      2.075471  15 C  s         
    75     -1.571075   8 C  s               108     -1.571075  15 C  s         
    71     -1.182589   8 C  s               104     -1.182590  15 C  s         
 
 Vector  118  Occ=0.000000D+00  E= 1.175184D+01
              MO Center= -7.3D-04, -3.6D-04,  7.4D-04, r^2= 4.3D+00
   Bfn.  Coefficient  Atom+Function         Bfn.  Coefficient  Atom+Function  
  ----- ------------  ---------------      ----- ------------  ---------------
    37     -2.470997   4 C  s                52      2.469579   5 C  s         
    39     -2.375967   4 C  s                54      2.374756   5 C  s         
    36      2.328987   4 C  s                51     -2.327657   5 C  s         
    38      2.312615   4 C  s                53     -2.311294   5 C  s         
    35     -1.211756   4 C  s                50      1.211064   5 C  s         
 
 Vector  119  Occ=0.000000D+00  E= 1.175218D+01
              MO Center=  7.3D-04,  3.7D-04, -7.4D-04, r^2= 4.2D+00
   Bfn.  Coefficient  Atom+Function         Bfn.  Coefficient  Atom+Function  
  ----- ------------  ---------------      ----- ------------  ---------------
    37     -2.446485   4 C  s                52     -2.447916   5 C  s         
    36      2.294130   4 C  s                51      2.295479   5 C  s         
    38      2.279855   4 C  s                53      2.281195   5 C  s         
    39     -2.097289   4 C  s                54     -2.098665   5 C  s         
    35     -1.194098   4 C  s                50     -1.194800   5 C  s         
 
 Vector  120  Occ=0.000000D+00  E= 1.193804D+01
              MO Center= -2.0D-06,  2.0D-06, -4.3D-06, r^2= 8.1D-01
   Bfn.  Coefficient  Atom+Function         Bfn.  Coefficient  Atom+Function  
  ----- ------------  ---------------      ----- ------------  ---------------
     6      3.428840   1 C  s                21     -3.428834   2 C  s         
     5     -2.633553   1 C  s                20      2.633553   2 C  s         
     4      2.583153   1 C  s                19     -2.583154   2 C  s         
     3     -2.363605   1 C  s                18      2.363606   2 C  s         
     2      1.221635   1 C  s                17     -1.221636   2 C  s         
 
 Vector  121  Occ=0.000000D+00  E= 6.247963D+01
              MO Center= -2.3D-06,  2.1D-06, -3.1D-06, r^2= 1.1D+00
   Bfn.  Coefficient  Atom+Function         Bfn.  Coefficient  Atom+Function  
  ----- ------------  ---------------      ----- ------------  ---------------
     2      1.973900   1 C  s                17      1.973898   2 C  s         
     3     -1.496268   1 C  s                18     -1.496266   2 C  s         
     1     -1.170755   1 C  s                16     -1.170754   2 C  s         
     4      0.996560   1 C  s                19      0.996559   2 C  s         
     5     -0.800608   1 C  s                20     -0.800607   2 C  s         
 
 Vector  122  Occ=0.000000D+00  E= 6.262529D+01
              MO Center= -3.4D-06, -4.4D-06,  3.4D-06, r^2= 9.4D+00
   Bfn.  Coefficient  Atom+Function         Bfn.  Coefficient  Atom+Function  
  ----- ------------  ---------------      ----- ------------  ---------------
    71      2.081774   8 C  s               104     -2.081772  15 C  s         
    72     -1.586990   8 C  s               105      1.586988  15 C  s         
    70     -1.230606   8 C  s               103      1.230605  15 C  s         
    73      1.064421   8 C  s               106     -1.064420  15 C  s         
    74     -0.883350   8 C  s               107      0.883349  15 C  s         
 
 Vector  123  Occ=0.000000D+00  E= 6.264106D+01
              MO Center=  3.4D-06, -3.1D-06,  4.8D-07, r^2= 8.8D+00
   Bfn.  Coefficient  Atom+Function         Bfn.  Coefficient  Atom+Function  
  ----- ------------  ---------------      ----- ------------  ---------------
    71      2.010996   8 C  s               104      2.010999  15 C  s         
    72     -1.535052   8 C  s               105     -1.535054  15 C  s         
    70     -1.188182   8 C  s               103     -1.188184  15 C  s         
    73      1.033270   8 C  s               106      1.033272  15 C  s         
    74     -0.865470   8 C  s               107     -0.865471  15 C  s         
 
 Vector  124  Occ=0.000000D+00  E= 6.269668D+01
              MO Center= -5.5D-05, -2.6D-05,  5.8D-05, r^2= 4.0D+00
   Bfn.  Coefficient  Atom+Function         Bfn.  Coefficient  Atom+Function  
  ----- ------------  ---------------      ----- ------------  ---------------
    35      2.087072   4 C  s                50     -2.086979   5 C  s         
    36     -1.601432   4 C  s                51      1.601361   5 C  s         
    34     -1.230681   4 C  s                49      1.230627   5 C  s         
    37      1.104951   4 C  s                52     -1.104902   5 C  s         
    39      1.004336   4 C  s                54     -1.004297   5 C  s         
 
 Vector  125  Occ=0.000000D+00  E= 6.270094D+01
              MO Center=  5.8D-05,  3.1D-05, -5.8D-05, r^2= 4.0D+00
   Bfn.  Coefficient  Atom+Function         Bfn.  Coefficient  Atom+Function  
  ----- ------------  ---------------      ----- ------------  ---------------
    35      2.030939   4 C  s                50      2.031034   5 C  s         
    36     -1.558084   4 C  s                51     -1.558157   5 C  s         
    34     -1.197572   4 C  s                49     -1.197629   5 C  s         
    37      1.081344   4 C  s                52      1.081394   5 C  s         
    38     -0.958385   4 C  s                53     -0.958430   5 C  s         
 
 Vector  126  Occ=0.000000D+00  E= 6.288816D+01
              MO Center= -2.0D-06,  1.9D-06, -4.1D-06, r^2= 5.4D-01
   Bfn.  Coefficient  Atom+Function         Bfn.  Coefficient  Atom+Function  
  ----- ------------  ---------------      ----- ------------  ---------------
     2      2.101978   1 C  s                17     -2.101979   2 C  s         
     3     -1.628019   1 C  s                18      1.628021   2 C  s         
     6      1.472788   1 C  s                21     -1.472786   2 C  s         
     1     -1.233699   1 C  s                16      1.233700   2 C  s         
     4      1.161250   1 C  s                19     -1.161250   2 C  s         
 

 center of mass
 --------------
 x =  -0.00000021 y =   0.00000024 z =  -0.00000042

 moments of inertia (a.u.)
 ------------------
         465.057583215778        -185.378651954327         540.569113375644
        -185.378651954327        1445.142156766476         121.941810457499
         540.569113375644         121.941810457499        1178.634610414692
 
     Multipole analysis of the density
     ---------------------------------
 
     L   x y z        total         alpha         beta         nuclear
     -   - - -        -----         -----         ----         -------
     0   0 0 0     -0.000000    -24.000000    -24.000000     48.000000
 
     1   1 0 0      0.000006      0.000003      0.000003     -0.000000
     1   0 1 0     -0.000001     -0.000001     -0.000001     -0.000000
     1   0 0 1     -0.000000     -0.000000     -0.000000      0.000000
 
     2   2 0 0    -30.719991   -344.166426   -344.166426    657.612860
     2   1 1 0      0.230802    -54.600449    -54.600449    109.431699
     2   1 0 1     -1.199232    160.274132    160.274132   -321.747497
     2   0 2 0    -29.324535    -51.236795    -51.236795     73.149055
     2   0 1 1      0.180572     36.098368     36.098368    -72.016163
     2   0 0 2    -29.886966   -128.215663   -128.215663    226.544361
 

 Task  times  cpu:        5.5s     wall:        5.8s
 
 
                                NWChem Input Module
                                -------------------
 
 
 Summary of allocated global arrays
-----------------------------------
  No active global arrays



                         GA Statistics for process    0
                         ------------------------------

       create   destroy   get      put      acc     scatter   gather  read&inc
calls:  158      158     2.70e+04 2014     2.18e+04    0        0      490     
number of processes/call 8.39e+00 3.36e+01 6.16e+00 0.00e+00 0.00e+00
bytes total:             4.37e+07 5.43e+06 2.31e+07 0.00e+00 0.00e+00 3.92e+03
bytes remote:            3.52e+07 2.90e+06 1.97e+07 0.00e+00 0.00e+00 0.00e+00
Max memory consumed for GA by this process: 686080 bytes
 
 
 
                                     CITATION
                                     --------
                Please cite the following reference when publishing
                           results obtained with NWChem:
 
          E. Apr, E. J. Bylaska, W. A. de Jong, N. Govind, K. Kowalski,
       T. P. Straatsma, M. Valiev, H. J. J. van Dam, Y. Alexeev, J. Anchell,
       V. Anisimov, F. W. Aquino, R. Atta-Fynn, J. Autschbach, N. P. Bauman,
     J. C. Becca, D. E. Bernholdt, K. Bhaskaran-Nair, S. Bogatko, P. Borowski,
        J. Boschen, J. Brabec, A. Bruner, E. Caut, Y. Chen, G. N. Chuev,
      C. J. Cramer, J. Daily, M. J. O. Deegan, T. H. Dunning Jr., M. Dupuis,
   K. G. Dyall, G. I. Fann, S. A. Fischer, A. Fonari, H. Frchtl, L. Gagliardi,
      J. Garza, N. Gawande, S. Ghosh, K. Glaesemann, A. W. Gtz, J. Hammond,
       V. Helms, E. D. Hermes, K. Hirao, S. Hirata, M. Jacquelin, L. Jensen,
   B. G. Johnson, H. Jnsson, R. A. Kendall, M. Klemm, R. Kobayashi, V. Konkov,
      S. Krishnamoorthy, M. Krishnan, Z. Lin, R. D. Lins, R. J. Littlefield,
      A. J. Logsdail, K. Lopata, W. Ma, A. V. Marenich, J. Martin del Campo,
   D. Mejia-Rodriguez, J. E. Moore, J. M. Mullin, T. Nakajima, D. R. Nascimento,
    J. A. Nichols, P. J. Nichols, J. Nieplocha, A. Otero-de-la-Roza, B. Palmer,
    A. Panyala, T. Pirojsirikul, B. Peng, R. Peverati, J. Pittner, L. Pollack,
   R. M. Richard, P. Sadayappan, G. C. Schatz, W. A. Shelton, D. W. Silverstein,
   D. M. A. Smith, T. A. Soares, D. Song, M. Swart, H. L. Taylor, G. S. Thomas,
            V. Tipparaju, D. G. Truhlar, K. Tsemekhman, T. Van Voorhis,
     . Vzquez-Mayagoitia, P. Verma, O. Villa, A. Vishnu, K. D. Vogiatzis,
        D. Wang, J. H. Weare, M. J. Williamson, T. L. Windus, K. Woliski,
        A. T. Wong, Q. Wu, C. Yang, Q. Yu, M. Zacharias, Z. Zhang, Y. Zhao,
                                and R. J. Harrison
                        "NWChem: Past, present, and future
                         J. Chem. Phys. 152, 184102 (2020)
                               doi:10.1063/5.0004997
 
                                      AUTHORS
                                      -------
     E. Apra, E. J. Bylaska, N. Govind, K. Kowalski, M. Valiev, W. A. de Jong,
      T. P. Straatsma, H. J. J. van Dam, D. Wang, T. L. Windus, N. P. Bauman,
       A. Panyala, J. Hammond, J. Autschbach, K. Bhaskaran-Nair, J. Brabec,
    K. Lopata, S. A. Fischer, S. Krishnamoorthy, M. Jacquelin, W. Ma, M. Klemm,
       O. Villa, Y. Chen, V. Anisimov, F. Aquino, S. Hirata, M. T. Hackler,
           Eric Hermes, L. Jensen, J. E. Moore, J. C. Becca, V. Konjkov,
            D. Mejia-Rodriguez, T. Risthaus, M. Malagoli, A. Marenich,
   A. Otero-de-la-Roza, J. Mullin, P. Nichols, R. Peverati, J. Pittner, Y. Zhao,
        P.-D. Fan, A. Fonari, M. J. Williamson, R. J. Harrison, J. R. Rehr,
      M. Dupuis, D. Silverstein, D. M. A. Smith, J. Nieplocha, V. Tipparaju,
      M. Krishnan, B. E. Van Kuiken, A. Vazquez-Mayagoitia, M. Swart, Q. Wu,
   T. Van Voorhis, A. A. Auer, M. Nooijen, L. D. Crosby, E. Brown, G. Cisneros,
     G. I. Fann, H. Fruchtl, J. Garza, K. Hirao, R. A. Kendall, J. A. Nichols,
       K. Tsemekhman, K. Wolinski, J. Anchell, D. E. Bernholdt, P. Borowski,
       T. Clark, D. Clerc, H. Dachsel, M. J. O. Deegan, K. Dyall, D. Elwood,
      E. Glendening, M. Gutowski, A. C. Hess, J. Jaffe, B. G. Johnson, J. Ju,
        R. Kobayashi, R. Kutteh, Z. Lin, R. Littlefield, X. Long, B. Meng,
      T. Nakajima, S. Niu, L. Pollack, M. Rosing, K. Glaesemann, G. Sandrone,
      M. Stave, H. Taylor, G. Thomas, J. H. van Lenthe, A. T. Wong, Z. Zhang.

 Total times  cpu:        5.5s     wall:        5.9s
