 
             Northwest Computational Chemistry Package (NWChem) 7.0.0
             --------------------------------------------------------
 
 
                    Environmental Molecular Sciences Laboratory
                       Pacific Northwest National Laboratory
                                Richland, WA 99352
 
                              Copyright (c) 1994-2020
                       Pacific Northwest National Laboratory
                            Battelle Memorial Institute
 
             NWChem is an open-source computational chemistry package
                        distributed under the terms of the
                      Educational Community License (ECL) 2.0
             A copy of the license is included with this distribution
                              in the LICENSE.TXT file
 
                                  ACKNOWLEDGMENT
                                  --------------

            This software and its documentation were developed at the
            EMSL at Pacific Northwest National Laboratory, a multiprogram
            national laboratory, operated for the U.S. Department of Energy
            by Battelle under Contract Number DE-AC05-76RL01830. Support
            for this work was provided by the Department of Energy Office
            of Biological and Environmental Research, Office of Basic
            Energy Sciences, and the Office of Advanced Scientific Computing.


                                NWChem Input Module
                                -------------------
 
 
 Summary of "ao basis" -> "" (spherical)
 ------------------------------------------------------------------------------
       Tag                 Description            Shells   Functions and Types
 ---------------- ------------------------------  ------  ---------------------
 *                        ahlrichs_vtz                on all atoms 



 Scaling coordinates for geometry "geometry" by  1.889725989
 (inverse scale =  0.529177249)

 
 
                             Geometry "geometry" -> ""
                             -------------------------
 
 Output coordinates in angstroms (scale by  1.889725989 to convert to a.u.)
 
  No.       Tag          Charge          X              Y              Z
 ---- ---------------- ---------- -------------- -------------- --------------
    1 C                    6.0000     0.11076816    -0.03318837    -0.04260944
    2 C                    6.0000     1.31972401    -0.39528439    -0.50818115
    3 C                    6.0000    -1.14609004    -0.16925047    -0.87118272
    4 C                    6.0000    -0.08170496     0.53700138     1.34396057
    5 H                    1.0000     1.44804850    -0.80632218    -1.51155811
    6 H                    1.0000     2.22189103    -0.29290471     0.09827535
    7 H                    1.0000    -0.93533527    -0.58903338    -1.86383561
    8 H                    1.0000    -1.63646062     0.80948984    -1.00771351
    9 H                    1.0000    -1.88058607    -0.82189755    -0.36959869
   10 H                    1.0000     0.86851227     0.60861333     1.88981206
   11 H                    1.0000    -0.77265462    -0.08773246     1.93500258
   12 H                    1.0000    -0.52959836     1.54411806     1.29769229
 
      Atomic Mass 
      ----------- 
 
      C                 12.000000
      H                  1.007825
 

 Effective nuclear repulsion energy (a.u.)     118.9770207296

            Nuclear Dipole moment (a.u.) 
            ----------------------------
        X                 Y               Z
 ---------------- ---------------- ----------------
    -0.0000000000     0.0000000000     0.0000000000
 
 
            XYZ format geometry
            -------------------
    12
 geometry
 C                     0.11076816    -0.03318837    -0.04260944
 C                     1.31972401    -0.39528439    -0.50818115
 C                    -1.14609004    -0.16925047    -0.87118272
 C                    -0.08170496     0.53700138     1.34396057
 H                     1.44804850    -0.80632218    -1.51155811
 H                     2.22189103    -0.29290471     0.09827535
 H                    -0.93533527    -0.58903338    -1.86383561
 H                    -1.63646062     0.80948984    -1.00771351
 H                    -1.88058607    -0.82189755    -0.36959869
 H                     0.86851227     0.60861333     1.88981206
 H                    -0.77265462    -0.08773246     1.93500258
 H                    -0.52959836     1.54411806     1.29769229
 
 ==============================================================================
                                internuclear distances
 ------------------------------------------------------------------------------
       center one      |      center two      | atomic units |  angstroms
 ------------------------------------------------------------------------------
    2 C                |   1 C                |     2.54198  |     1.34516
    3 C                |   1 C                |     2.85639  |     1.51154
    4 C                |   1 C                |     2.85639  |     1.51154
    5 H                |   2 C                |     2.06334  |     1.09187
    6 H                |   2 C                |     2.06333  |     1.09187
    7 H                |   3 C                |     2.07526  |     1.09818
    8 H                |   3 C                |     2.08473  |     1.10319
    9 H                |   3 C                |     2.08472  |     1.10319
   10 H                |   4 C                |     2.07526  |     1.09818
   11 H                |   4 C                |     2.08473  |     1.10319
   12 H                |   4 C                |     2.08473  |     1.10319
 ------------------------------------------------------------------------------
                         number of included internuclear distances:         11
 ==============================================================================



 ==============================================================================
                                 internuclear angles
 ------------------------------------------------------------------------------
        center 1       |       center 2       |       center 3       |  degrees
 ------------------------------------------------------------------------------
    2 C                |   1 C                |   3 C                |   122.23
    2 C                |   1 C                |   4 C                |   122.24
    3 C                |   1 C                |   4 C                |   115.53
    1 C                |   2 C                |   5 H                |   121.67
    1 C                |   2 C                |   6 H                |   121.68
    5 H                |   2 C                |   6 H                |   116.65
    1 C                |   3 C                |   7 H                |   111.74
    1 C                |   3 C                |   8 H                |   110.95
    1 C                |   3 C                |   9 H                |   110.96
    7 H                |   3 C                |   8 H                |   108.21
    7 H                |   3 C                |   9 H                |   108.22
    8 H                |   3 C                |   9 H                |   106.57
    1 C                |   4 C                |  10 H                |   111.74
    1 C                |   4 C                |  11 H                |   110.95
    1 C                |   4 C                |  12 H                |   110.95
   10 H                |   4 C                |  11 H                |   108.21
   10 H                |   4 C                |  12 H                |   108.22
   11 H                |   4 C                |  12 H                |   106.57
 ------------------------------------------------------------------------------
                            number of included internuclear angles:         18
 ==============================================================================



                              Aldehyde and Ketone set
                              -----------------------
 
                                 NWChem DFT Module
                                 -----------------
 
 
                              Aldehyde and Ketone set
 
 
                      Basis "ao basis" -> "ao basis" (spherical)
                      -----
  C (Carbon)
  ----------
            Exponent  Coefficients 
       -------------- ---------------------------------------------------------
  1 S  8.50603840E+03  0.000534
  1 S  1.27573290E+03  0.004125
  1 S  2.90311870E+02  0.021171
  1 S  8.20562000E+01  0.082418
  1 S  2.64796410E+01  0.240129
 
  2 S  9.24145850E+00  1.000000
 
  3 S  3.36435300E+00  1.000000
 
  4 S  8.71741640E-01  1.000000
 
  5 S  3.63523520E-01  1.000000
 
  6 S  1.28731350E-01  1.000000
 
  7 P  3.47094960E+01  0.005330
  7 P  7.95908830E+00  0.035866
  7 P  2.37869720E+00  0.142003
  7 P  8.15400650E-01  0.342031
 
  8 P  2.89537850E-01  1.000000
 
  9 P  1.00847540E-01  1.000000
 
  H (Hydrogen)
  ------------
            Exponent  Coefficients 
       -------------- ---------------------------------------------------------
  1 S  3.40613410E+01  0.006025
  1 S  5.12357460E+00  0.045021
  1 S  1.16466260E+00  0.201897
 
  2 S  3.27230410E-01  1.000000
 
  3 S  1.03072410E-01  1.000000
 


 Summary of "ao basis" -> "ao basis" (spherical)
 ------------------------------------------------------------------------------
       Tag                 Description            Shells   Functions and Types
 ---------------- ------------------------------  ------  ---------------------
 C                        ahlrichs vtz               9       15   6s3p
 H                        ahlrichs vtz               3        3   3s




 Summary of "ao basis" -> "ao basis" (spherical)
 ------------------------------------------------------------------------------
       Tag                 Description            Shells   Functions and Types
 ---------------- ------------------------------  ------  ---------------------
 C                        ahlrichs vtz               9       15   6s3p
 H                        ahlrichs vtz               3        3   3s


  Caching 1-el integrals 
 
            General Information
            -------------------
          SCF calculation type: DFT
          Wavefunction type:  closed shell.
          No. of atoms     :    12
          No. of electrons :    32
           Alpha electrons :    16
            Beta electrons :    16
          Charge           :     0
          Spin multiplicity:     1
          Use of symmetry is: off; symmetry adaption is: off
          Maximum number of iterations: 999
          This is a Direct SCF calculation.
          AO basis - number of functions:    84
                     number of shells:    60
          Convergence on energy requested:  1.00D-08
          Convergence on density requested:  1.00D-07
          Convergence on gradient requested:  1.00D-06
 
              XC Information
              --------------
                        PBE96 Method XC Functional
          PerdewBurkeErnzerhof Exchange Functional  1.000          
            Perdew 1991 LDA Correlation Functional  1.000 local    
           PerdewBurkeErnz. Correlation Functional  1.000 non-local
 
             Grid Information
             ----------------
          Grid used for XC integration:  fine      
          Radial quadrature: Mura-Knowles        
          Angular quadrature: Lebedev. 
          Tag              B.-S. Rad. Rad. Pts. Rad. Cut. Ang. Pts.
          ---              ---------- --------- --------- ---------
          C                   0.70       70          11.0       590
          H                   0.35       60          12.0       590
          Grid pruning is: on 
          Number of quadrature shells:   760
          Spatial weights used:  Erf1
 
          Convergence Information
          -----------------------
          Convergence aids based upon iterative change in 
          total energy or number of iterations. 
          Levelshifting, if invoked, occurs when the 
          HOMO/LUMO gap drops below (HL_TOL):  1.00D-02
          DIIS, if invoked, will attempt to extrapolate 
          using up to (NFOCK): 10 stored Fock matrices.

                    Damping( 0%)  Levelshifting(0.5)       DIIS
                  --------------- ------------------- ---------------
          dE  on:    start            ASAP                start   
          dE off:    2 iters        999 iters           999 iters 

 
      Screening Tolerance Information
      -------------------------------
          Density screening/tol_rho:  1.00D-12
          AO Gaussian exp screening on grid/accAOfunc:  18
          CD Gaussian exp screening on grid/accCDfunc:  20
          XC Gaussian exp screening on grid/accXCfunc:  20
          Schwarz screening/accCoul:  1.00D-12

      Dispersion Parameters
      ---------------------

           DFT-D3BJ Model   
          s6 scale factor  :        1.000000000000
          s8 scale factor  :        0.787500000000
          a1 parameter     :        0.428900000000
          a2 parameter     :        4.440700000000
              vdW contrib  :       -0.007877691592


 Forcing the number of linearly dependent vectors to be  0
 
      Superposition of Atomic Density Guess
      -------------------------------------
 
 Sum of atomic energies:        -154.68305411
   Time after variat. SCF:      0.2
   Time prior to 1st pass:      0.2

 Grid_pts file          = ./20_Me2CCHMe.gridpts.00
 Record size in doubles =  12289        No. of grid_pts per rec  =   3070
 Max. records in memory =     12        Max. recs in file   =  67550051

 Grid integrated density:      31.999996381159
 Requested integration accuracy:   0.10E-06

           Memory utilization after 1st SCF pass: 
           Heap Space remaining (MW):        0.00                 218
          Stack Space remaining (MW):      288.36           288357604

   convergence    iter        energy       DeltaE   RMS-Dens  Diis-err    time
 ---------------- ----- ----------------- --------- --------- ---------  ------
 d= 0,ls=0.0,diis     1   -157.3894009472 -2.76D+02  3.11D-02  4.45D+01     0.4
 d= 0,ls=0.0,diis     2   -156.8154072264  5.74D-01  2.17D-02  1.48D+00     0.6
 Grid integrated density:      31.999994107822
 Requested integration accuracy:   0.10E-06
 d= 0,ls=0.0,diis     3   -156.6496714433  1.66D-01  1.54D-02  2.50D+00     0.8
 d= 0,ls=0.0,diis     4   -157.0152471931 -3.66D-01  1.69D-03  8.82D-03     1.0
 d= 0,ls=0.0,diis     5   -157.0144983375  7.49D-04  8.36D-04  1.59D-02     1.2
 d= 0,ls=0.0,diis     6   -157.0165868925 -2.09D-03  2.20D-04  3.70D-04     1.4
 d= 0,ls=0.0,diis     7   -157.0166371766 -5.03D-05  4.37D-05  3.71D-05     1.6
 d= 0,ls=0.0,diis     8   -157.0166417977 -4.62D-06  8.65D-06  1.21D-07     1.8
 d= 0,ls=0.0,diis     9   -157.0166418172 -1.95D-08  2.75D-06  2.28D-08     2.0
 d= 0,ls=0.0,diis    10   -157.0166418221 -4.90D-09  2.40D-07  1.23D-10     2.2
 d= 0,ls=0.0,diis    11   -157.0166418221 -2.27D-11  3.45D-08  5.10D-12     2.3


         Total DFT energy =     -157.016641822112
      One electron energy =     -445.109902447363
           Coulomb energy =      193.501914984992
          Exchange energy =      -23.359823110441
       Correlation energy =       -1.017974287303
 Nuclear repulsion energy =      118.977020729596

    Dispersion correction =       -0.007877691592

 Numeric. integr. density =       31.999997270972

     Total iterative time =      2.1s


 
                       DFT Final Molecular Orbital Analysis
                       ------------------------------------
 
 Vector    1  Occ=2.000000D+00  E=-9.906157D+00
              MO Center=  1.1D-01, -3.3D-02, -4.3D-02, r^2= 2.8D-02
   Bfn.  Coefficient  Atom+Function         Bfn.  Coefficient  Atom+Function  
  ----- ------------  ---------------      ----- ------------  ---------------
     2      0.424242   1 C  s                 3      0.359440   1 C  s         
     1      0.308797   1 C  s                 4      0.057710   1 C  s         
 
 Vector    2  Occ=2.000000D+00  E=-9.886689D+00
              MO Center= -2.0D-01,  4.6D-01,  1.1D+00, r^2= 6.8D-01
   Bfn.  Coefficient  Atom+Function         Bfn.  Coefficient  Atom+Function  
  ----- ------------  ---------------      ----- ------------  ---------------
    47      0.399732   4 C  s                48      0.338589   4 C  s         
    46      0.290966   4 C  s                32     -0.142214   3 C  s         
    33     -0.120394   3 C  s                31     -0.103503   3 C  s         
    49      0.054499   4 C  s         
 
 Vector    3  Occ=2.000000D+00  E=-9.886684D+00
              MO Center= -1.0D+00, -9.0D-02, -6.2D-01, r^2= 6.8D-01
   Bfn.  Coefficient  Atom+Function         Bfn.  Coefficient  Atom+Function  
  ----- ------------  ---------------      ----- ------------  ---------------
    32      0.399715   3 C  s                33      0.338630   3 C  s         
    31      0.290967   3 C  s                47      0.142169   4 C  s         
    48      0.120509   4 C  s                46      0.103505   4 C  s         
    34      0.054348   3 C  s         
 
 Vector    4  Occ=2.000000D+00  E=-9.874449D+00
              MO Center=  1.3D+00, -4.0D-01, -5.1D-01, r^2= 2.8D-02
   Bfn.  Coefficient  Atom+Function         Bfn.  Coefficient  Atom+Function  
  ----- ------------  ---------------      ----- ------------  ---------------
    17      0.424144   2 C  s                18      0.359521   2 C  s         
    16      0.308777   2 C  s                19      0.057679   2 C  s         
 
 Vector    5  Occ=2.000000D+00  E=-7.348705D-01
              MO Center=  3.2D-02, -9.6D-03, -1.2D-02, r^2= 1.8D+00
   Bfn.  Coefficient  Atom+Function         Bfn.  Coefficient  Atom+Function  
  ----- ------------  ---------------      ----- ------------  ---------------
     5      0.357007   1 C  s                35      0.230740   3 C  s         
    50      0.230731   4 C  s                20      0.217312   2 C  s         
     3     -0.107856   1 C  s                36      0.094713   3 C  s         
    51      0.094699   4 C  s                 2     -0.084916   1 C  s         
     4      0.081432   1 C  s                18     -0.067317   2 C  s         
 
 Vector    6  Occ=2.000000D+00  E=-6.289933D-01
              MO Center= -5.6D-01,  1.7D-01,  2.2D-01, r^2= 2.9D+00
   Bfn.  Coefficient  Atom+Function         Bfn.  Coefficient  Atom+Function  
  ----- ------------  ---------------      ----- ------------  ---------------
    35      0.366598   3 C  s                50     -0.366769   4 C  s         
    36      0.108918   3 C  s                51     -0.108951   4 C  s         
     9     -0.104846   1 C  pz               33     -0.097662   3 C  s         
    48      0.097706   4 C  s                32     -0.078793   3 C  s         
    47      0.078830   4 C  s                67      0.065684   7 H  s         
 
 Vector    7  Occ=2.000000D+00  E=-6.161943D-01
              MO Center=  3.7D-01, -1.1D-01, -1.4D-01, r^2= 2.8D+00
   Bfn.  Coefficient  Atom+Function         Bfn.  Coefficient  Atom+Function  
  ----- ------------  ---------------      ----- ------------  ---------------
    20      0.383993   2 C  s                35     -0.232264   3 C  s         
    50     -0.232003   4 C  s                 7      0.146139   1 C  px        
    18     -0.111222   2 C  s                17     -0.087461   2 C  s         
    10      0.086692   1 C  px               13      0.081609   1 C  px        
    19      0.081605   2 C  s                 5      0.080652   1 C  s         
 
 Vector    8  Occ=2.000000D+00  E=-4.718198D-01
              MO Center=  3.8D-01, -1.1D-01, -1.5D-01, r^2= 3.6D+00
   Bfn.  Coefficient  Atom+Function         Bfn.  Coefficient  Atom+Function  
  ----- ------------  ---------------      ----- ------------  ---------------
     5      0.342111   1 C  s                20     -0.209844   2 C  s         
    22     -0.155271   2 C  px               54     -0.131539   4 C  pz        
    35     -0.112413   3 C  s                50     -0.112418   4 C  s         
    25     -0.111068   2 C  px               37      0.110374   3 C  px        
    62     -0.101818   5 H  s                65     -0.101820   6 H  s         
 
 Vector    9  Occ=2.000000D+00  E=-4.074342D-01
              MO Center=  3.6D-01, -1.1D-01, -1.4D-01, r^2= 3.2D+00
   Bfn.  Coefficient  Atom+Function         Bfn.  Coefficient  Atom+Function  
  ----- ------------  ---------------      ----- ------------  ---------------
    24      0.197890   2 C  pz               27      0.163071   2 C  pz        
     9      0.157721   1 C  pz               37     -0.156342   3 C  px        
    12      0.123138   1 C  pz               40     -0.123058   3 C  px        
    52      0.114597   4 C  px               62     -0.102531   5 H  s         
    65      0.102592   6 H  s                55      0.097164   4 C  px        
 
 Vector   10  Occ=2.000000D+00  E=-3.991507D-01
              MO Center=  1.3D-01, -3.8D-02, -4.9D-02, r^2= 3.4D+00
   Bfn.  Coefficient  Atom+Function         Bfn.  Coefficient  Atom+Function  
  ----- ------------  ---------------      ----- ------------  ---------------
     7      0.178125   1 C  px               39     -0.176455   3 C  pz        
    22     -0.170068   2 C  px               52      0.153163   4 C  px        
    42     -0.148709   3 C  pz               55      0.136806   4 C  px        
    10      0.131715   1 C  px               68      0.112936   7 H  s         
    77      0.112979  10 H  s                25     -0.111851   2 C  px        
 
 Vector   11  Occ=2.000000D+00  E=-3.874550D-01
              MO Center= -6.9D-01,  2.1D-01,  2.6D-01, r^2= 2.8D+00
   Bfn.  Coefficient  Atom+Function         Bfn.  Coefficient  Atom+Function  
  ----- ------------  ---------------      ----- ------------  ---------------
    38      0.195697   3 C  py               53      0.195709   4 C  py        
    41      0.168869   3 C  py               56      0.168879   4 C  py        
     8      0.133242   1 C  py               11      0.113384   1 C  py        
    71      0.112125   8 H  s                74     -0.112081   9 H  s         
    80     -0.112095  11 H  s                83      0.112114  12 H  s         
 
 Vector   12  Occ=2.000000D+00  E=-3.435918D-01
              MO Center= -8.8D-01,  2.6D-01,  3.4D-01, r^2= 3.0D+00
   Bfn.  Coefficient  Atom+Function         Bfn.  Coefficient  Atom+Function  
  ----- ------------  ---------------      ----- ------------  ---------------
    38      0.220310   3 C  py               53     -0.220296   4 C  py        
    41      0.190609   3 C  py               56     -0.190598   4 C  py        
    71      0.139298   8 H  s                74     -0.139162   9 H  s         
    80      0.139246  11 H  s                83     -0.139219  12 H  s         
    70      0.107661   8 H  s                73     -0.107564   9 H  s         
 
 Vector   13  Occ=2.000000D+00  E=-3.280431D-01
              MO Center= -6.8D-03,  2.0D-03,  2.9D-03, r^2= 4.2D+00
   Bfn.  Coefficient  Atom+Function         Bfn.  Coefficient  Atom+Function  
  ----- ------------  ---------------      ----- ------------  ---------------
    52      0.205116   4 C  px               39      0.172611   3 C  pz        
    55      0.166543   4 C  px               68     -0.156082   7 H  s         
    77      0.156111  10 H  s                24     -0.151059   2 C  pz        
    42      0.139115   3 C  pz               67     -0.116323   7 H  s         
    76      0.116341  10 H  s                62      0.114025   5 H  s         
 
 Vector   14  Occ=2.000000D+00  E=-3.241948D-01
              MO Center= -1.4D-01,  4.2D-02,  5.4D-02, r^2= 3.3D+00
   Bfn.  Coefficient  Atom+Function         Bfn.  Coefficient  Atom+Function  
  ----- ------------  ---------------      ----- ------------  ---------------
     7      0.210467   1 C  px               22     -0.194758   2 C  px        
    37     -0.182574   3 C  px               52     -0.166138   4 C  px        
    40     -0.158149   3 C  px               55     -0.146357   4 C  px        
    10      0.139517   1 C  px               13      0.134873   1 C  px        
    25     -0.129110   2 C  px               68     -0.094843   7 H  s         
 
 Vector   15  Occ=2.000000D+00  E=-2.998553D-01
              MO Center=  2.8D-01, -8.3D-02, -1.1D-01, r^2= 3.2D+00
   Bfn.  Coefficient  Atom+Function         Bfn.  Coefficient  Atom+Function  
  ----- ------------  ---------------      ----- ------------  ---------------
     9      0.209295   1 C  pz               54     -0.199499   4 C  pz        
    57     -0.172289   4 C  pz               12      0.163775   1 C  pz        
    37     -0.150570   3 C  px               39     -0.147858   3 C  pz        
    24     -0.141929   2 C  pz               62      0.140365   5 H  s         
    65     -0.140373   6 H  s                40     -0.130080   3 C  px        
 
 Vector   16  Occ=2.000000D+00  E=-2.162791D-01
              MO Center=  5.7D-01, -1.7D-01, -2.2D-01, r^2= 2.4D+00
   Bfn.  Coefficient  Atom+Function         Bfn.  Coefficient  Atom+Function  
  ----- ------------  ---------------      ----- ------------  ---------------
    23      0.278731   2 C  py               26      0.262099   2 C  py        
     8      0.239471   1 C  py               11      0.229480   1 C  py        
    29      0.173981   2 C  py               14      0.111893   1 C  py        
    24     -0.108873   2 C  pz               27     -0.102375   2 C  pz        
    71     -0.094280   8 H  s                74      0.094228   9 H  s         
 
 Vector   17  Occ=0.000000D+00  E=-1.630958D-02
              MO Center=  5.3D-01, -1.6D-01, -2.0D-01, r^2= 3.2D+00
   Bfn.  Coefficient  Atom+Function         Bfn.  Coefficient  Atom+Function  
  ----- ------------  ---------------      ----- ------------  ---------------
    14      0.575619   1 C  py               29     -0.570079   2 C  py        
    11      0.330612   1 C  py                8      0.304472   1 C  py        
    26     -0.270747   2 C  py               23     -0.262142   2 C  py        
    72     -0.246520   8 H  s                75      0.246027   9 H  s         
    81      0.246335  11 H  s                84     -0.246248  12 H  s         
 
 Vector   18  Occ=0.000000D+00  E= 2.088146D-02
              MO Center= -6.0D-01,  1.8D-01,  2.3D-01, r^2= 7.8D+00
   Bfn.  Coefficient  Atom+Function         Bfn.  Coefficient  Atom+Function  
  ----- ------------  ---------------      ----- ------------  ---------------
    36      1.484210   3 C  s                51      1.484148   4 C  s         
    21      1.033110   2 C  s                72     -0.721413   8 H  s         
    75     -0.721295   9 H  s                81     -0.721453  11 H  s         
    84     -0.721407  12 H  s                69     -0.586915   7 H  s         
    78     -0.586922  10 H  s                63     -0.369217   5 H  s         
 
 Vector   19  Occ=0.000000D+00  E= 6.660881D-02
              MO Center=  5.9D-01, -1.8D-01, -2.3D-01, r^2= 8.3D+00
   Bfn.  Coefficient  Atom+Function         Bfn.  Coefficient  Atom+Function  
  ----- ------------  ---------------      ----- ------------  ---------------
    21      1.537409   2 C  s                63     -1.068163   5 H  s         
    66     -1.064508   6 H  s                69     -0.895772   7 H  s         
    78     -0.892359  10 H  s                72      0.770334   8 H  s         
    75      0.770170   9 H  s                81      0.772307  11 H  s         
    84      0.771628  12 H  s                58      0.765988   4 C  px        
 
 Vector   20  Occ=0.000000D+00  E= 6.727805D-02
              MO Center= -3.4D-01,  1.0D-01,  1.3D-01, r^2= 9.6D+00
   Bfn.  Coefficient  Atom+Function         Bfn.  Coefficient  Atom+Function  
  ----- ------------  ---------------      ----- ------------  ---------------
    36      2.375438   3 C  s                51     -2.374456   4 C  s         
    15      1.139962   1 C  pz               30     -1.060177   2 C  pz        
    69     -0.987039   7 H  s                78      0.990042  10 H  s         
    63     -0.959785   5 H  s                66      0.963388   6 H  s         
    72     -0.578788   8 H  s                75     -0.578309   9 H  s         
 
 Vector   21  Occ=0.000000D+00  E= 7.905007D-02
              MO Center=  4.8D-01, -1.4D-01, -1.8D-01, r^2= 8.6D+00
   Bfn.  Coefficient  Atom+Function         Bfn.  Coefficient  Atom+Function  
  ----- ------------  ---------------      ----- ------------  ---------------
    63      1.655476   5 H  s                66     -1.656284   6 H  s         
    30      1.194597   2 C  pz               69      0.871525   7 H  s         
    78     -0.871625  10 H  s                45      0.740746   3 C  pz        
    36      0.700601   3 C  s                51     -0.700732   4 C  s         
    75     -0.577750   9 H  s                84      0.577931  12 H  s         
 
 Vector   22  Occ=0.000000D+00  E= 9.197631D-02
              MO Center= -1.3D+00,  3.8D-01,  4.9D-01, r^2= 5.7D+00
   Bfn.  Coefficient  Atom+Function         Bfn.  Coefficient  Atom+Function  
  ----- ------------  ---------------      ----- ------------  ---------------
    72      1.524286   8 H  s                75     -1.525738   9 H  s         
    81     -1.525780  11 H  s                84      1.524293  12 H  s         
    44     -1.229992   3 C  py               59     -1.230411   4 C  py        
    14      0.874233   1 C  py               45      0.481367   3 C  pz        
    60      0.480961   4 C  pz               15     -0.340495   1 C  pz        
 
 Vector   23  Occ=0.000000D+00  E= 9.460061D-02
              MO Center=  7.0D-01, -2.1D-01, -2.7D-01, r^2= 8.7D+00
   Bfn.  Coefficient  Atom+Function         Bfn.  Coefficient  Atom+Function  
  ----- ------------  ---------------      ----- ------------  ---------------
    21      2.226611   2 C  s                69      1.175961   7 H  s         
    78      1.176549  10 H  s                36     -1.038362   3 C  s         
    51     -1.038029   4 C  s                13     -0.951305   1 C  px        
    63     -0.713676   5 H  s                66     -0.713713   6 H  s         
    43     -0.700978   3 C  px               58     -0.537292   4 C  px        
 
 Vector   24  Occ=0.000000D+00  E= 1.194731D-01
              MO Center= -2.1D-01,  6.3D-02,  8.1D-02, r^2= 8.0D+00
   Bfn.  Coefficient  Atom+Function         Bfn.  Coefficient  Atom+Function  
  ----- ------------  ---------------      ----- ------------  ---------------
     6      4.331013   1 C  s                60      1.252674   4 C  pz        
    21     -1.145489   2 C  s                45     -0.954320   3 C  pz        
    36     -0.942757   3 C  s                51     -0.943203   4 C  s         
    43     -0.917617   3 C  px               28      0.831802   2 C  px        
    69     -0.504272   7 H  s                78     -0.504682  10 H  s         
 
 Vector   25  Occ=0.000000D+00  E= 1.237963D-01
              MO Center= -1.3D+00,  3.8D-01,  4.9D-01, r^2= 6.0D+00
   Bfn.  Coefficient  Atom+Function         Bfn.  Coefficient  Atom+Function  
  ----- ------------  ---------------      ----- ------------  ---------------
    72      1.676718   8 H  s                75     -1.676524   9 H  s         
    81      1.676071  11 H  s                84     -1.677035  12 H  s         
    44     -1.136535   3 C  py               59      1.136237   4 C  py        
    45      0.444700   3 C  pz               60     -0.444712   4 C  pz        
    41     -0.238205   3 C  py               56      0.238381   4 C  py        
 
 Vector   26  Occ=0.000000D+00  E= 1.439890D-01
              MO Center=  2.5D-01, -7.4D-02, -9.5D-02, r^2= 9.1D+00
   Bfn.  Coefficient  Atom+Function         Bfn.  Coefficient  Atom+Function  
  ----- ------------  ---------------      ----- ------------  ---------------
    69      1.830744   7 H  s                78     -1.830273  10 H  s         
    58      1.504746   4 C  px               63     -1.383630   5 H  s         
    66      1.383514   6 H  s                43     -1.180944   3 C  px        
    72     -1.077025   8 H  s                75     -1.077520   9 H  s         
    81      1.077814  11 H  s                84      1.076415  12 H  s         
 
 Vector   27  Occ=0.000000D+00  E= 1.725471D-01
              MO Center= -8.3D-01,  2.5D-01,  3.2D-01, r^2= 6.6D+00
   Bfn.  Coefficient  Atom+Function         Bfn.  Coefficient  Atom+Function  
  ----- ------------  ---------------      ----- ------------  ---------------
    13      4.465542   1 C  px               21     -3.677652   2 C  s         
    28      2.075573   2 C  px               45      2.012740   3 C  pz        
    58     -2.006934   4 C  px               15     -1.718844   1 C  pz        
    36      1.532188   3 C  s                51      1.531844   4 C  s         
    14     -1.337617   1 C  py               69      1.170132   7 H  s         
 
 Vector   28  Occ=0.000000D+00  E= 1.840196D-01
              MO Center= -2.8D-01,  8.3D-02,  1.1D-01, r^2= 9.3D+00
   Bfn.  Coefficient  Atom+Function         Bfn.  Coefficient  Atom+Function  
  ----- ------------  ---------------      ----- ------------  ---------------
    15      4.616582   1 C  pz               30     -2.857540   2 C  pz        
    43      2.840984   3 C  px               63     -2.464439   5 H  s         
    66      2.464815   6 H  s                60      2.424543   4 C  pz        
    36      2.304712   3 C  s                51     -2.305072   4 C  s         
    13      2.216897   1 C  px               14      1.469802   1 C  py        
 
 Vector   29  Occ=0.000000D+00  E= 1.864484D-01
              MO Center=  6.0D-01, -1.8D-01, -2.3D-01, r^2= 5.9D+00
   Bfn.  Coefficient  Atom+Function         Bfn.  Coefficient  Atom+Function  
  ----- ------------  ---------------      ----- ------------  ---------------
    44      1.269308   3 C  py               59      1.266382   4 C  py        
    29      0.910514   2 C  py               14     -0.799967   1 C  py        
    72     -0.549867   8 H  s                81      0.549628  11 H  s         
    75      0.542186   9 H  s                84     -0.542364  12 H  s         
    60     -0.502430   4 C  pz               45     -0.499118   3 C  pz        
 
 Vector   30  Occ=0.000000D+00  E= 2.102797D-01
              MO Center= -2.6D-01,  7.7D-02,  9.9D-02, r^2= 6.8D+00
   Bfn.  Coefficient  Atom+Function         Bfn.  Coefficient  Atom+Function  
  ----- ------------  ---------------      ----- ------------  ---------------
    44      1.326950   3 C  py               59     -1.326664   4 C  py        
    45     -0.519424   3 C  pz               60      0.519246   4 C  pz        
    71     -0.381121   8 H  s                74      0.380750   9 H  s         
    80     -0.381073  11 H  s                83      0.380743  12 H  s         
    41     -0.229914   3 C  py               56      0.229768   4 C  py        
 
 Vector   31  Occ=0.000000D+00  E= 2.327525D-01
              MO Center=  1.0D+00, -3.1D-01, -3.9D-01, r^2= 7.6D+00
   Bfn.  Coefficient  Atom+Function         Bfn.  Coefficient  Atom+Function  
  ----- ------------  ---------------      ----- ------------  ---------------
    28      3.007686   2 C  px                6      2.272711   1 C  s         
    63     -1.606879   5 H  s                66     -1.606569   6 H  s         
    30     -1.158621   2 C  pz               43      1.104007   3 C  px        
    29     -0.900337   2 C  py               60     -0.851731   4 C  pz        
    69      0.793522   7 H  s                78      0.793195  10 H  s         
 
 Vector   32  Occ=0.000000D+00  E= 2.897523D-01
              MO Center=  4.8D-01, -1.4D-01, -1.8D-01, r^2= 5.0D+00
   Bfn.  Coefficient  Atom+Function         Bfn.  Coefficient  Atom+Function  
  ----- ------------  ---------------      ----- ------------  ---------------
    15      1.539122   1 C  pz               63     -1.307858   5 H  s         
    66      1.303610   6 H  s                30     -0.977457   2 C  pz        
    13      0.758060   1 C  px               65     -0.618057   6 H  s         
    62      0.614461   5 H  s                36      0.540056   3 C  s         
    51     -0.531236   4 C  s                57      0.504780   4 C  pz        
 
 Vector   33  Occ=0.000000D+00  E= 2.914342D-01
              MO Center=  3.7D-01, -1.1D-01, -1.5D-01, r^2= 4.1D+00
   Bfn.  Coefficient  Atom+Function         Bfn.  Coefficient  Atom+Function  
  ----- ------------  ---------------      ----- ------------  ---------------
    13      3.380544   1 C  px               21     -1.713342   2 C  s         
    15     -1.310158   1 C  pz               14     -1.015573   1 C  py        
    51      0.981786   4 C  s                36      0.976562   3 C  s         
    45      0.789387   3 C  pz                6      0.771799   1 C  s         
    60     -0.697872   4 C  pz               10     -0.606498   1 C  px        
 
 Vector   34  Occ=0.000000D+00  E= 3.099008D-01
              MO Center= -1.2D+00,  3.7D-01,  4.7D-01, r^2= 6.3D+00
   Bfn.  Coefficient  Atom+Function         Bfn.  Coefficient  Atom+Function  
  ----- ------------  ---------------      ----- ------------  ---------------
    58      3.619285   4 C  px               45      2.987574   3 C  pz        
    69      2.088036   7 H  s                78     -2.090667  10 H  s         
    15     -1.883655   1 C  pz               43     -1.754642   3 C  px        
    44      1.403658   3 C  py               36     -1.352104   3 C  s         
    51      1.349263   4 C  s                30     -0.959160   2 C  pz        
 
 Vector   35  Occ=0.000000D+00  E= 3.108220D-01
              MO Center=  5.9D-01, -1.8D-01, -2.3D-01, r^2= 7.0D+00
   Bfn.  Coefficient  Atom+Function         Bfn.  Coefficient  Atom+Function  
  ----- ------------  ---------------      ----- ------------  ---------------
    44      2.152034   3 C  py               59      2.135698   4 C  py        
    72     -1.175721   8 H  s                81      1.176179  11 H  s         
    75      1.161017   9 H  s                84     -1.160450  12 H  s         
    14     -1.151823   1 C  py               29     -0.888033   2 C  py        
    60     -0.825618   4 C  pz               45     -0.804748   3 C  pz        
 
 Vector   36  Occ=0.000000D+00  E= 3.135673D-01
              MO Center= -8.9D-02,  2.7D-02,  3.5D-02, r^2= 4.7D+00
   Bfn.  Coefficient  Atom+Function         Bfn.  Coefficient  Atom+Function  
  ----- ------------  ---------------      ----- ------------  ---------------
    13      3.972579   1 C  px               21     -2.415975   2 C  s         
    28      1.572639   2 C  px               15     -1.532598   1 C  pz        
    36      1.332843   3 C  s                51      1.336223   4 C  s         
    69      1.216151   7 H  s                78      1.211633  10 H  s         
    14     -1.190371   1 C  py               63     -0.981544   5 H  s         
 
 Vector   37  Occ=0.000000D+00  E= 3.351830D-01
              MO Center=  1.9D-01, -5.7D-02, -7.4D-02, r^2= 5.6D+00
   Bfn.  Coefficient  Atom+Function         Bfn.  Coefficient  Atom+Function  
  ----- ------------  ---------------      ----- ------------  ---------------
    14      3.062469   1 C  py               29     -1.252449   2 C  py        
    15     -1.195671   1 C  pz               44     -1.039853   3 C  py        
    59     -1.038872   4 C  py               11     -0.801518   1 C  py        
    30      0.492360   2 C  pz               13      0.457698   1 C  px        
    45      0.403859   3 C  pz               60      0.405095   4 C  pz        
 
 Vector   38  Occ=0.000000D+00  E= 3.899269D-01
              MO Center=  6.6D-01, -2.0D-01, -2.6D-01, r^2= 6.8D+00
   Bfn.  Coefficient  Atom+Function         Bfn.  Coefficient  Atom+Function  
  ----- ------------  ---------------      ----- ------------  ---------------
    30      3.679690   2 C  pz               63      2.792845   5 H  s         
    66     -2.794948   6 H  s                69      1.802709   7 H  s         
    78     -1.798565  10 H  s                28      1.770678   2 C  px        
    60      1.556022   4 C  pz               45      1.416449   3 C  pz        
    29      1.173947   2 C  py               43      0.898618   3 C  px        
 
 Vector   39  Occ=0.000000D+00  E= 3.917185D-01
              MO Center=  1.5D-02, -4.5D-03, -4.4D-03, r^2= 6.1D+00
   Bfn.  Coefficient  Atom+Function         Bfn.  Coefficient  Atom+Function  
  ----- ------------  ---------------      ----- ------------  ---------------
    21      3.150395   2 C  s                13     -2.641384   1 C  px        
    69     -2.365731   7 H  s                78     -2.368865  10 H  s         
     6     -2.038327   1 C  s                45     -1.751253   3 C  pz        
    58      1.624972   4 C  px               28     -1.084270   2 C  px        
    15      1.018431   1 C  pz               60      1.015128   4 C  pz        
 
 Vector   40  Occ=0.000000D+00  E= 4.278240D-01
              MO Center= -1.2D+00,  3.5D-01,  4.5D-01, r^2= 4.8D+00
   Bfn.  Coefficient  Atom+Function         Bfn.  Coefficient  Atom+Function  
  ----- ------------  ---------------      ----- ------------  ---------------
    72      1.604400   8 H  s                75     -1.600338   9 H  s         
    81     -1.604919  11 H  s                84      1.601985  12 H  s         
    44     -1.223569   3 C  py               59     -1.222680   4 C  py        
    71     -0.849453   8 H  s                74      0.848771   9 H  s         
    80      0.849389  11 H  s                83     -0.849632  12 H  s         
 
 Vector   41  Occ=0.000000D+00  E= 4.363385D-01
              MO Center= -1.2D+00,  3.5D-01,  4.5D-01, r^2= 6.1D+00
   Bfn.  Coefficient  Atom+Function         Bfn.  Coefficient  Atom+Function  
  ----- ------------  ---------------      ----- ------------  ---------------
    72      2.293186   8 H  s                75     -2.290126   9 H  s         
    81      2.289625  11 H  s                84     -2.292148  12 H  s         
    44     -1.709495   3 C  py               59      1.709857   4 C  py        
    71     -0.860090   8 H  s                74      0.859029   9 H  s         
    80     -0.859203  11 H  s                83      0.859093  12 H  s         
 
 Vector   42  Occ=0.000000D+00  E= 4.472854D-01
              MO Center= -3.3D-01,  1.0D-01,  1.3D-01, r^2= 7.3D+00
   Bfn.  Coefficient  Atom+Function         Bfn.  Coefficient  Atom+Function  
  ----- ------------  ---------------      ----- ------------  ---------------
    15      3.274455   1 C  pz               43      2.075626   3 C  px        
    58     -2.062662   4 C  px               69     -1.750887   7 H  s         
    72      1.742587   8 H  s                75      1.745320   9 H  s         
    78      1.749999  10 H  s                81     -1.745782  11 H  s         
    84     -1.743759  12 H  s                13      1.569804   1 C  px        
 
 Vector   43  Occ=0.000000D+00  E= 4.486745D-01
              MO Center=  9.5D-01, -2.8D-01, -3.6D-01, r^2= 6.8D+00
   Bfn.  Coefficient  Atom+Function         Bfn.  Coefficient  Atom+Function  
  ----- ------------  ---------------      ----- ------------  ---------------
    13      5.739127   1 C  px               28      3.477413   2 C  px        
    21     -3.119917   2 C  s                63     -2.896988   5 H  s         
    66     -2.898860   6 H  s                15     -2.209882   1 C  pz        
    36      2.156392   3 C  s                51      2.156883   4 C  s         
    60     -1.743849   4 C  pz               14     -1.719343   1 C  py        
 
 Vector   44  Occ=0.000000D+00  E= 4.674508D-01
              MO Center= -5.8D-01,  1.8D-01,  2.3D-01, r^2= 6.6D+00
   Bfn.  Coefficient  Atom+Function         Bfn.  Coefficient  Atom+Function  
  ----- ------------  ---------------      ----- ------------  ---------------
    36      2.793679   3 C  s                51      2.788053   4 C  s         
    35     -1.746703   3 C  s                50     -1.747022   4 C  s         
    21      1.488722   2 C  s                69     -1.157344   7 H  s         
    78     -1.160190  10 H  s                20     -0.748188   2 C  s         
    72     -0.712632   8 H  s                75     -0.712802   9 H  s         
 
 Vector   45  Occ=0.000000D+00  E= 4.698047D-01
              MO Center=  6.7D-01, -2.0D-01, -2.6D-01, r^2= 7.1D+00
   Bfn.  Coefficient  Atom+Function         Bfn.  Coefficient  Atom+Function  
  ----- ------------  ---------------      ----- ------------  ---------------
    15      8.704571   1 C  pz               30     -6.488576   2 C  pz        
    63     -4.597607   5 H  s                66      4.596785   6 H  s         
    13      4.184359   1 C  px               36      3.271364   3 C  s         
    51     -3.275356   4 C  s                28     -3.118004   2 C  px        
    14      2.775264   1 C  py               60      2.722872   4 C  pz        
 
 Vector   46  Occ=0.000000D+00  E= 4.938428D-01
              MO Center= -5.3D-01,  1.6D-01,  2.0D-01, r^2= 6.6D+00
   Bfn.  Coefficient  Atom+Function         Bfn.  Coefficient  Atom+Function  
  ----- ------------  ---------------      ----- ------------  ---------------
    36      3.847110   3 C  s                51     -3.846903   4 C  s         
    15      3.261843   1 C  pz               30     -2.540930   2 C  pz        
    35     -1.650928   3 C  s                50      1.650795   4 C  s         
    13      1.568293   1 C  px               63     -1.495952   5 H  s         
    66      1.496087   6 H  s                69     -1.475576   7 H  s         
 
 Vector   47  Occ=0.000000D+00  E= 5.052064D-01
              MO Center= -2.0D-01,  5.9D-02,  7.6D-02, r^2= 4.7D+00
   Bfn.  Coefficient  Atom+Function         Bfn.  Coefficient  Atom+Function  
  ----- ------------  ---------------      ----- ------------  ---------------
     6      3.763629   1 C  s                21      2.795510   2 C  s         
    13     -2.463097   1 C  px                5     -2.034038   1 C  s         
    20     -1.651074   2 C  s                60      1.066658   4 C  pz        
    15      0.949581   1 C  pz               43     -0.865668   3 C  px        
    14      0.738211   1 C  py               45     -0.733342   3 C  pz        
 
 Vector   48  Occ=0.000000D+00  E= 5.410099D-01
              MO Center=  5.5D-01, -1.7D-01, -2.1D-01, r^2= 4.7D+00
   Bfn.  Coefficient  Atom+Function         Bfn.  Coefficient  Atom+Function  
  ----- ------------  ---------------      ----- ------------  ---------------
    21      4.509302   2 C  s                69      1.429578   7 H  s         
    78      1.428986  10 H  s                63     -1.393040   5 H  s         
    66     -1.394190   6 H  s                25     -1.260575   2 C  px        
     6     -1.240301   1 C  s                10     -1.102426   1 C  px        
    13     -0.976127   1 C  px               28      0.936468   2 C  px        
 
 Vector   49  Occ=0.000000D+00  E= 6.337664D-01
              MO Center=  7.1D-01, -2.1D-01, -2.7D-01, r^2= 5.1D+00
   Bfn.  Coefficient  Atom+Function         Bfn.  Coefficient  Atom+Function  
  ----- ------------  ---------------      ----- ------------  ---------------
    15      9.758808   1 C  pz               30     -7.366475   2 C  pz        
    13      4.690790   1 C  px               36      4.261915   3 C  s         
    51     -4.254297   4 C  s                28     -3.540922   2 C  px        
    63     -3.524121   5 H  s                66      3.524089   6 H  s         
    14      3.112986   1 C  py               29     -2.349414   2 C  py        
 
 Vector   50  Occ=0.000000D+00  E= 6.454723D-01
              MO Center= -3.2D-01,  9.6D-02,  1.2D-01, r^2= 5.7D+00
   Bfn.  Coefficient  Atom+Function         Bfn.  Coefficient  Atom+Function  
  ----- ------------  ---------------      ----- ------------  ---------------
     6      7.462749   1 C  s                36     -6.740949   3 C  s         
    51     -6.745918   4 C  s                13     -2.323600   1 C  px        
     5     -1.590532   1 C  s                21      1.583653   2 C  s         
    35      1.535375   3 C  s                50      1.534634   4 C  s         
    43     -1.336407   3 C  px               60      1.324640   4 C  pz        
 
 Vector   51  Occ=0.000000D+00  E= 6.832368D-01
              MO Center=  1.1D+00, -3.3D-01, -4.3D-01, r^2= 4.5D+00
   Bfn.  Coefficient  Atom+Function         Bfn.  Coefficient  Atom+Function  
  ----- ------------  ---------------      ----- ------------  ---------------
    21     12.899586   2 C  s                 6    -10.135576   1 C  s         
    13     -7.576522   1 C  px               28     -4.347790   2 C  px        
    20     -2.969341   2 C  s                15      2.918784   1 C  pz        
     5      2.632430   1 C  s                14      2.270285   1 C  py        
    30      1.673402   2 C  pz               45     -1.521971   3 C  pz        
 
 Vector   52  Occ=0.000000D+00  E= 8.237507D-01
              MO Center= -8.9D-01,  2.7D-01,  3.4D-01, r^2= 6.6D+00
   Bfn.  Coefficient  Atom+Function         Bfn.  Coefficient  Atom+Function  
  ----- ------------  ---------------      ----- ------------  ---------------
    36     12.768203   3 C  s                51    -12.769816   4 C  s         
    15     11.883832   1 C  pz               13      5.709043   1 C  px        
    30     -5.419108   2 C  pz               14      3.789145   1 C  py        
    60      3.773760   4 C  pz               43      3.478588   3 C  px        
    28     -2.605358   2 C  px               63     -2.557982   5 H  s         
 
 Vector   53  Occ=0.000000D+00  E= 1.320209D+00
              MO Center= -3.1D-01,  9.4D-02,  1.2D-01, r^2= 3.5D+00
   Bfn.  Coefficient  Atom+Function         Bfn.  Coefficient  Atom+Function  
  ----- ------------  ---------------      ----- ------------  ---------------
    21     -1.854711   2 C  s                13      1.790395   1 C  px        
    40     -1.360287   3 C  px               57      1.252161   4 C  pz        
     5      1.206116   1 C  s                10     -1.101667   1 C  px        
    60     -0.856770   4 C  pz               37      0.754290   3 C  px        
    15     -0.688849   1 C  pz               43      0.657284   3 C  px        
 
 Vector   54  Occ=0.000000D+00  E= 1.384541D+00
              MO Center=  4.5D-01, -1.4D-01, -1.7D-01, r^2= 2.4D+00
   Bfn.  Coefficient  Atom+Function         Bfn.  Coefficient  Atom+Function  
  ----- ------------  ---------------      ----- ------------  ---------------
    11      0.878256   1 C  py               26      0.873433   2 C  py        
     8     -0.770734   1 C  py               23     -0.733821   2 C  py        
    14     -0.663683   1 C  py               41      0.527157   3 C  py        
    56      0.527218   4 C  py               38     -0.376107   3 C  py        
    53     -0.376141   4 C  py               12     -0.342807   1 C  pz        
 
 Vector   55  Occ=0.000000D+00  E= 1.418210D+00
              MO Center=  4.1D-01, -1.2D-01, -1.6D-01, r^2= 3.1D+00
   Bfn.  Coefficient  Atom+Function         Bfn.  Coefficient  Atom+Function  
  ----- ------------  ---------------      ----- ------------  ---------------
    13      1.867299   1 C  px               25     -1.775258   2 C  px        
    28      1.614097   2 C  px               10     -1.447586   1 C  px        
     5     -1.250684   1 C  s                63     -0.938779   5 H  s         
    66     -0.937965   6 H  s                20      0.761838   2 C  s         
    22      0.735957   2 C  px               15     -0.718392   1 C  pz        
 
 Vector   56  Occ=0.000000D+00  E= 1.425853D+00
              MO Center=  7.2D-01, -2.2D-01, -2.8D-01, r^2= 2.8D+00
   Bfn.  Coefficient  Atom+Function         Bfn.  Coefficient  Atom+Function  
  ----- ------------  ---------------      ----- ------------  ---------------
    26      1.365688   2 C  py               23     -0.911536   2 C  py        
    29     -0.898264   2 C  py               11     -0.762495   1 C  py        
    41     -0.623325   3 C  py               56     -0.623725   4 C  py        
    44      0.617300   3 C  py               59      0.617793   4 C  py        
    27     -0.533974   2 C  pz                8      0.478305   1 C  py        
 
 Vector   57  Occ=0.000000D+00  E= 1.442694D+00
              MO Center=  1.2D-01, -3.4D-02, -4.4D-02, r^2= 2.8D+00
   Bfn.  Coefficient  Atom+Function         Bfn.  Coefficient  Atom+Function  
  ----- ------------  ---------------      ----- ------------  ---------------
    12      1.623437   1 C  pz               30     -1.160005   2 C  pz        
    57      1.005481   4 C  pz               60     -0.970180   4 C  pz        
    42      0.936499   3 C  pz               36      0.917200   3 C  s         
    51     -0.917339   4 C  s                69     -0.862400   7 H  s         
    78      0.862496  10 H  s                45     -0.835431   3 C  pz        
 
 Vector   58  Occ=0.000000D+00  E= 1.456515D+00
              MO Center= -4.6D-01,  1.4D-01,  1.8D-01, r^2= 3.2D+00
   Bfn.  Coefficient  Atom+Function         Bfn.  Coefficient  Atom+Function  
  ----- ------------  ---------------      ----- ------------  ---------------
    41      1.488458   3 C  py               56     -1.488003   4 C  py        
    44     -1.222423   3 C  py               59      1.221845   4 C  py        
    72      0.932966   8 H  s                75     -0.933009   9 H  s         
    81      0.932971  11 H  s                84     -0.932589  12 H  s         
    38     -0.855745   3 C  py               53      0.855508   4 C  py        
 
 Vector   59  Occ=0.000000D+00  E= 1.484846D+00
              MO Center=  1.3D-02, -3.8D-03, -5.1D-03, r^2= 4.4D+00
   Bfn.  Coefficient  Atom+Function         Bfn.  Coefficient  Atom+Function  
  ----- ------------  ---------------      ----- ------------  ---------------
    21      2.403441   2 C  s                25     -1.864911   2 C  px        
    42     -1.586416   3 C  pz               10     -1.371485   1 C  px        
    55      1.309426   4 C  px               57      1.069169   4 C  pz        
    69      1.050285   7 H  s                78      1.050094  10 H  s         
    13     -0.963430   1 C  px                6     -0.789124   1 C  s         
 
 Vector   60  Occ=0.000000D+00  E= 1.554787D+00
              MO Center= -4.2D-01,  1.3D-01,  1.6D-01, r^2= 4.0D+00
   Bfn.  Coefficient  Atom+Function         Bfn.  Coefficient  Atom+Function  
  ----- ------------  ---------------      ----- ------------  ---------------
    15      4.778738   1 C  pz               36      4.708443   3 C  s         
    51     -4.709193   4 C  s                30     -2.415693   2 C  pz        
    13      2.295791   1 C  px               40      2.037491   3 C  px        
    14      1.523667   1 C  py               57      1.384170   4 C  pz        
    55     -1.330967   4 C  px               28     -1.161311   2 C  px        
 
 Vector   61  Occ=0.000000D+00  E= 1.577043D+00
              MO Center= -2.3D-01,  6.9D-02,  8.9D-02, r^2= 3.2D+00
   Bfn.  Coefficient  Atom+Function         Bfn.  Coefficient  Atom+Function  
  ----- ------------  ---------------      ----- ------------  ---------------
    11      1.534175   1 C  py               14     -1.477520   1 C  py        
    41     -1.406190   3 C  py               56     -1.406375   4 C  py        
    44      1.342578   3 C  py               59      1.342530   4 C  py        
    72     -0.854240   8 H  s                75      0.853855   9 H  s         
    81      0.853982  11 H  s                84     -0.854087  12 H  s         
 
 Vector   62  Occ=0.000000D+00  E= 1.650664D+00
              MO Center=  1.1D-01, -3.3D-02, -4.2D-02, r^2= 3.6D+00
   Bfn.  Coefficient  Atom+Function         Bfn.  Coefficient  Atom+Function  
  ----- ------------  ---------------      ----- ------------  ---------------
    58      1.563956   4 C  px               27      1.554573   2 C  pz        
    45      1.222802   3 C  pz               42     -1.215366   3 C  pz        
    69      1.211535   7 H  s                78     -1.211715  10 H  s         
    55     -1.198785   4 C  px               30     -1.179300   2 C  pz        
    36     -1.176162   3 C  s                51      1.176547   4 C  s         
 
 Vector   63  Occ=0.000000D+00  E= 1.752296D+00
              MO Center= -4.0D-02,  1.2D-02,  1.5D-02, r^2= 3.2D+00
   Bfn.  Coefficient  Atom+Function         Bfn.  Coefficient  Atom+Function  
  ----- ------------  ---------------      ----- ------------  ---------------
    13      2.206917   1 C  px               21     -1.971500   2 C  s         
    10     -1.918466   1 C  px               20      1.401585   2 C  s         
    58     -1.081438   4 C  px               55      1.057289   4 C  px        
     7      0.852087   1 C  px               15     -0.849320   1 C  pz        
    40      0.806862   3 C  px               45      0.770619   3 C  pz        
 
 Vector   64  Occ=0.000000D+00  E= 1.859179D+00
              MO Center=  5.4D-01, -1.6D-01, -2.1D-01, r^2= 3.4D+00
   Bfn.  Coefficient  Atom+Function         Bfn.  Coefficient  Atom+Function  
  ----- ------------  ---------------      ----- ------------  ---------------
    12      2.118497   1 C  pz               27     -1.731399   2 C  pz        
    30      1.572566   2 C  pz               15     -1.451539   1 C  pz        
    63      1.352569   5 H  s                66     -1.352474   6 H  s         
    62     -1.117451   5 H  s                65      1.117286   6 H  s         
    35      1.051912   3 C  s                50     -1.051667   4 C  s         
 
 Vector   65  Occ=0.000000D+00  E= 2.082914D+00
              MO Center= -3.4D-01,  1.0D-01,  1.3D-01, r^2= 5.2D+00
   Bfn.  Coefficient  Atom+Function         Bfn.  Coefficient  Atom+Function  
  ----- ------------  ---------------      ----- ------------  ---------------
    35      1.874946   3 C  s                50      1.875010   4 C  s         
     5     -1.623771   1 C  s                34     -1.425297   3 C  s         
    49     -1.425286   4 C  s                 4      1.137221   1 C  s         
    68     -1.043092   7 H  s                77     -1.043047  10 H  s         
    20      0.899616   2 C  s                71     -0.844714   8 H  s         
 
 Vector   66  Occ=0.000000D+00  E= 2.166380D+00
              MO Center=  1.2D+00, -3.6D-01, -4.6D-01, r^2= 3.6D+00
   Bfn.  Coefficient  Atom+Function         Bfn.  Coefficient  Atom+Function  
  ----- ------------  ---------------      ----- ------------  ---------------
    20      2.101276   2 C  s                19     -1.743021   2 C  s         
    13     -1.514607   1 C  px               62     -1.356740   5 H  s         
    65     -1.356865   6 H  s                63      1.075987   5 H  s         
    66      1.077073   6 H  s                61      0.796769   5 H  s         
    64      0.796941   6 H  s                35     -0.660151   3 C  s         
 
 Vector   67  Occ=0.000000D+00  E= 2.193312D+00
              MO Center= -4.1D-01,  1.2D-01,  1.6D-01, r^2= 4.4D+00
   Bfn.  Coefficient  Atom+Function         Bfn.  Coefficient  Atom+Function  
  ----- ------------  ---------------      ----- ------------  ---------------
    15      3.640068   1 C  pz               30     -1.882420   2 C  pz        
    36      1.840069   3 C  s                51     -1.840462   4 C  s         
    35      1.822216   3 C  s                50     -1.821632   4 C  s         
    13      1.749845   1 C  px               34     -1.689240   3 C  s         
    49      1.688754   4 C  s                68     -1.168672   7 H  s         
 
 Vector   68  Occ=0.000000D+00  E= 2.284065D+00
              MO Center= -1.3D+00,  3.8D-01,  4.9D-01, r^2= 3.7D+00
   Bfn.  Coefficient  Atom+Function         Bfn.  Coefficient  Atom+Function  
  ----- ------------  ---------------      ----- ------------  ---------------
    71      1.165411   8 H  s                74     -1.165068   9 H  s         
    80      1.165210  11 H  s                83     -1.165297  12 H  s         
    72     -0.851508   8 H  s                75      0.851435   9 H  s         
    81     -0.851544  11 H  s                84      0.851433  12 H  s         
    70     -0.798313   8 H  s                73      0.797960   9 H  s         
 
 Vector   69  Occ=0.000000D+00  E= 2.303975D+00
              MO Center= -1.2D+00,  3.6D-01,  4.7D-01, r^2= 3.8D+00
   Bfn.  Coefficient  Atom+Function         Bfn.  Coefficient  Atom+Function  
  ----- ------------  ---------------      ----- ------------  ---------------
    71      1.121828   8 H  s                74     -1.121815   9 H  s         
    80     -1.121616  11 H  s                83      1.122011  12 H  s         
    70     -0.797628   8 H  s                73      0.797545   9 H  s         
    79      0.797430  11 H  s                82     -0.797727  12 H  s         
    14      0.529489   1 C  py               72     -0.462059   8 H  s         
 
 Vector   70  Occ=0.000000D+00  E= 2.340517D+00
              MO Center= -2.7D-01,  1.2D-01,  2.1D-01, r^2= 5.6D+00
   Bfn.  Coefficient  Atom+Function         Bfn.  Coefficient  Atom+Function  
  ----- ------------  ---------------      ----- ------------  ---------------
    77      1.322179  10 H  s                68      1.264179   7 H  s         
    13     -1.012795   1 C  px               76     -0.975479  10 H  s         
    36     -0.936620   3 C  s                67     -0.927891   7 H  s         
    51     -0.867953   4 C  s                78     -0.766440  10 H  s         
    69     -0.747658   7 H  s                21      0.740983   2 C  s         
 
 Vector   71  Occ=0.000000D+00  E= 2.340864D+00
              MO Center= -3.7D-01,  6.8D-02,  3.4D-02, r^2= 5.7D+00
   Bfn.  Coefficient  Atom+Function         Bfn.  Coefficient  Atom+Function  
  ----- ------------  ---------------      ----- ------------  ---------------
    15      1.837718   1 C  pz               51     -1.152719   4 C  s         
    30     -1.117116   2 C  pz               36      1.098051   3 C  s         
    68      0.997641   7 H  s                77     -0.919146  10 H  s         
    71     -0.893908   8 H  s                74     -0.895038   9 H  s         
    80      0.866889  11 H  s                83      0.866769  12 H  s         
 
 Vector   72  Occ=0.000000D+00  E= 2.425930D+00
              MO Center=  1.3D+00, -3.9D-01, -5.0D-01, r^2= 3.6D+00
   Bfn.  Coefficient  Atom+Function         Bfn.  Coefficient  Atom+Function  
  ----- ------------  ---------------      ----- ------------  ---------------
    30      2.602658   2 C  pz               15     -2.350367   1 C  pz        
    62      1.411642   5 H  s                65     -1.411498   6 H  s         
    28      1.251589   2 C  px               13     -1.128910   1 C  px        
    61     -1.028535   5 H  s                64      1.028396   6 H  s         
    63      0.865168   5 H  s                66     -0.865671   6 H  s         
 
 Vector   73  Occ=0.000000D+00  E= 2.452556D+00
              MO Center=  3.0D-01, -9.1D-02, -1.2D-01, r^2= 2.3D+00
   Bfn.  Coefficient  Atom+Function         Bfn.  Coefficient  Atom+Function  
  ----- ------------  ---------------      ----- ------------  ---------------
     5      3.780826   1 C  s                 4     -3.029811   1 C  s         
    20      2.640860   2 C  s                 6     -2.623733   1 C  s         
    21     -2.252213   2 C  s                19     -2.185238   2 C  s         
    13      1.254544   1 C  px               35      0.978822   3 C  s         
    50      0.978748   4 C  s                34     -0.917380   3 C  s         
 
 Vector   74  Occ=0.000000D+00  E= 2.671351D+00
              MO Center=  1.1D+00, -3.3D-01, -4.3D-01, r^2= 2.1D+00
   Bfn.  Coefficient  Atom+Function         Bfn.  Coefficient  Atom+Function  
  ----- ------------  ---------------      ----- ------------  ---------------
    21      7.829932   2 C  s                 6     -5.339910   1 C  s         
    20     -4.861116   2 C  s                13     -3.839390   1 C  px        
     5      3.421261   1 C  s                19      3.169366   2 C  s         
     4     -2.178176   1 C  s                28     -1.906478   2 C  px        
    15      1.478729   1 C  pz               14      1.150226   1 C  py        
 
 Vector   75  Occ=0.000000D+00  E= 2.761927D+00
              MO Center= -6.7D-01,  2.0D-01,  2.6D-01, r^2= 3.3D+00
   Bfn.  Coefficient  Atom+Function         Bfn.  Coefficient  Atom+Function  
  ----- ------------  ---------------      ----- ------------  ---------------
     6      4.551266   1 C  s                36     -4.237719   3 C  s         
    51     -4.237002   4 C  s                35      3.343775   3 C  s         
    50      3.343186   4 C  s                 5     -2.694266   1 C  s         
    34     -2.371295   3 C  s                49     -2.370895   4 C  s         
     4      1.721401   1 C  s                68      0.700697   7 H  s         
 
 Vector   76  Occ=0.000000D+00  E= 2.898735D+00
              MO Center= -6.9D-01,  2.1D-01,  2.7D-01, r^2= 4.2D+00
   Bfn.  Coefficient  Atom+Function         Bfn.  Coefficient  Atom+Function  
  ----- ------------  ---------------      ----- ------------  ---------------
    36      9.418666   3 C  s                51     -9.420030   4 C  s         
    15      7.651329   1 C  pz               35     -4.155225   3 C  s         
    50      4.155978   4 C  s                13      3.675464   1 C  px        
    30     -3.631457   2 C  pz               34      2.492651   3 C  s         
    49     -2.493122   4 C  s                14      2.439731   1 C  py        
 
 Vector   77  Occ=0.000000D+00  E= 1.147456D+01
              MO Center=  6.5D-01, -1.9D-01, -2.5D-01, r^2= 1.1D+00
   Bfn.  Coefficient  Atom+Function         Bfn.  Coefficient  Atom+Function  
  ----- ------------  ---------------      ----- ------------  ---------------
    18      2.291837   2 C  s                19     -2.299679   2 C  s         
     4     -2.133527   1 C  s                 3      2.101136   1 C  s         
    20      1.897771   2 C  s                 5      1.742530   1 C  s         
    21     -1.226417   2 C  s                17     -1.211252   2 C  s         
     2     -1.105487   1 C  s                 6     -1.059026   1 C  s         
 
 Vector   78  Occ=0.000000D+00  E= 1.168625D+01
              MO Center= -5.2D-01,  1.6D-01,  2.0D-01, r^2= 2.0D+00
   Bfn.  Coefficient  Atom+Function         Bfn.  Coefficient  Atom+Function  
  ----- ------------  ---------------      ----- ------------  ---------------
    34     -2.313604   3 C  s                49     -2.313555   4 C  s         
    33      2.216492   3 C  s                48      2.216436   4 C  s         
    35      2.065622   3 C  s                50      2.065603   4 C  s         
    36     -1.644642   3 C  s                51     -1.644845   4 C  s         
    32     -1.159556   3 C  s                47     -1.159527   4 C  s         
 
 Vector   79  Occ=0.000000D+00  E= 1.174232D+01
              MO Center= -6.2D-01,  1.9D-01,  2.4D-01, r^2= 2.0D+00
   Bfn.  Coefficient  Atom+Function         Bfn.  Coefficient  Atom+Function  
  ----- ------------  ---------------      ----- ------------  ---------------
    36      2.603254   3 C  s                51     -2.603391   4 C  s         
    34      2.481074   3 C  s                49     -2.481155   4 C  s         
    33     -2.338848   3 C  s                35     -2.345676   3 C  s         
    48      2.338920   4 C  s                50      2.345763   4 C  s         
    15      1.464076   1 C  pz               32      1.218050   3 C  s         
 
 Vector   80  Occ=0.000000D+00  E= 1.185819D+01
              MO Center=  6.9D-01, -2.1D-01, -2.7D-01, r^2= 8.1D-01
   Bfn.  Coefficient  Atom+Function         Bfn.  Coefficient  Atom+Function  
  ----- ------------  ---------------      ----- ------------  ---------------
    21      2.623041   2 C  s                 4     -2.552301   1 C  s         
     5      2.441900   1 C  s                 6     -2.438599   1 C  s         
     3      2.399259   1 C  s                19      2.405804   2 C  s         
    20     -2.326150   2 C  s                18     -2.275356   2 C  s         
     2     -1.245475   1 C  s                17      1.184136   2 C  s         
 
 Vector   81  Occ=0.000000D+00  E= 6.242744D+01
              MO Center=  6.3D-01, -1.9D-01, -2.4D-01, r^2= 8.3D-01
   Bfn.  Coefficient  Atom+Function         Bfn.  Coefficient  Atom+Function  
  ----- ------------  ---------------      ----- ------------  ---------------
    17      2.046238   2 C  s                 2      1.901173   1 C  s         
    18     -1.542264   2 C  s                 3     -1.438682   1 C  s         
    16     -1.216133   2 C  s                 1     -1.128524   1 C  s         
    19      1.003086   2 C  s                 4      0.946677   1 C  s         
    20     -0.784253   2 C  s                 5     -0.734375   1 C  s         
 
 Vector   82  Occ=0.000000D+00  E= 6.263752D+01
              MO Center= -5.0D-01,  1.5D-01,  1.9D-01, r^2= 1.7D+00
   Bfn.  Coefficient  Atom+Function         Bfn.  Coefficient  Atom+Function  
  ----- ------------  ---------------      ----- ------------  ---------------
    32      1.985665   3 C  s                47      1.985617   4 C  s         
    33     -1.515584   3 C  s                48     -1.515548   4 C  s         
    31     -1.173219   3 C  s                46     -1.173191   4 C  s         
    34      1.028175   3 C  s                49      1.028155   4 C  s         
    35     -0.870853   3 C  s                50     -0.870847   4 C  s         
 
 Vector   83  Occ=0.000000D+00  E= 6.268967D+01
              MO Center= -6.2D-01,  1.8D-01,  2.4D-01, r^2= 1.7D+00
   Bfn.  Coefficient  Atom+Function         Bfn.  Coefficient  Atom+Function  
  ----- ------------  ---------------      ----- ------------  ---------------
    32      2.090036   3 C  s                47     -2.090093   4 C  s         
    33     -1.602210   3 C  s                48      1.602255   4 C  s         
    31     -1.232899   3 C  s                46      1.232933   4 C  s         
    34      1.104526   3 C  s                49     -1.104559   4 C  s         
    36      1.097430   3 C  s                51     -1.097487   4 C  s         
 
 Vector   84  Occ=0.000000D+00  E= 6.280393D+01
              MO Center=  6.9D-01, -2.1D-01, -2.6D-01, r^2= 5.4D-01
   Bfn.  Coefficient  Atom+Function         Bfn.  Coefficient  Atom+Function  
  ----- ------------  ---------------      ----- ------------  ---------------
     2      2.142152   1 C  s                17     -2.046445   2 C  s         
     3     -1.651316   1 C  s                18      1.573505   2 C  s         
     1     -1.259597   1 C  s                16      1.204484   2 C  s         
     4      1.147204   1 C  s                21     -1.121683   2 C  s         
    19     -1.084595   2 C  s                 5     -1.044277   1 C  s         
 

 center of mass
 --------------
 x =   0.04067362 y =  -0.01218456 z =  -0.01565419

 moments of inertia (a.u.)
 ------------------
         217.301118371611          20.615513734181         -14.846758703504
          20.615513734181         366.697233513766         -63.035451817679
         -14.846758703504         -63.035451817679         227.293079495173
 
     Multipole analysis of the density
     ---------------------------------
 
     L   x y z        total         alpha         beta         nuclear
     -   - - -        -----         -----         ----         -------
     0   0 0 0     -0.000000    -16.000000    -16.000000     32.000000
 
     1   1 0 0     -0.216990     -0.108495     -0.108495     -0.000000
     1   0 1 0      0.065049      0.032525      0.032525      0.000000
     1   0 0 1      0.083556      0.041778      0.041778      0.000000
 
     2   2 0 0    -19.751096    -70.940251    -70.940251    122.129405
     2   1 1 0     -0.124487      6.221652      6.221652    -12.567790
     2   1 0 1      0.264603     -4.966441     -4.966441     10.197484
     2   0 2 0    -21.020451    -24.834319    -24.834319     28.648187
     2   0 1 1      0.613798    -19.671048    -19.671048     39.955894
     2   0 0 2    -19.605693    -68.496121    -68.496121    117.386550
 

 Task  times  cpu:        2.1s     wall:        2.3s
 
 
                                NWChem Input Module
                                -------------------
 
 
 Summary of allocated global arrays
-----------------------------------
  No active global arrays



                         GA Statistics for process    0
                         ------------------------------

       create   destroy   get      put      acc     scatter   gather  read&inc
calls:  158      158     1.20e+04 1541     1.04e+04    0        0      404     
number of processes/call 8.80e+00 3.56e+01 5.47e+00 0.00e+00 0.00e+00
bytes total:             1.90e+07 2.49e+06 1.07e+07 0.00e+00 0.00e+00 3.23e+03
bytes remote:            1.57e+07 1.49e+06 9.15e+06 0.00e+00 0.00e+00 0.00e+00
Max memory consumed for GA by this process: 272352 bytes
 
 
 
                                     CITATION
                                     --------
                Please cite the following reference when publishing
                           results obtained with NWChem:
 
          E. Apr, E. J. Bylaska, W. A. de Jong, N. Govind, K. Kowalski,
       T. P. Straatsma, M. Valiev, H. J. J. van Dam, Y. Alexeev, J. Anchell,
       V. Anisimov, F. W. Aquino, R. Atta-Fynn, J. Autschbach, N. P. Bauman,
     J. C. Becca, D. E. Bernholdt, K. Bhaskaran-Nair, S. Bogatko, P. Borowski,
        J. Boschen, J. Brabec, A. Bruner, E. Caut, Y. Chen, G. N. Chuev,
      C. J. Cramer, J. Daily, M. J. O. Deegan, T. H. Dunning Jr., M. Dupuis,
   K. G. Dyall, G. I. Fann, S. A. Fischer, A. Fonari, H. Frchtl, L. Gagliardi,
      J. Garza, N. Gawande, S. Ghosh, K. Glaesemann, A. W. Gtz, J. Hammond,
       V. Helms, E. D. Hermes, K. Hirao, S. Hirata, M. Jacquelin, L. Jensen,
   B. G. Johnson, H. Jnsson, R. A. Kendall, M. Klemm, R. Kobayashi, V. Konkov,
      S. Krishnamoorthy, M. Krishnan, Z. Lin, R. D. Lins, R. J. Littlefield,
      A. J. Logsdail, K. Lopata, W. Ma, A. V. Marenich, J. Martin del Campo,
   D. Mejia-Rodriguez, J. E. Moore, J. M. Mullin, T. Nakajima, D. R. Nascimento,
    J. A. Nichols, P. J. Nichols, J. Nieplocha, A. Otero-de-la-Roza, B. Palmer,
    A. Panyala, T. Pirojsirikul, B. Peng, R. Peverati, J. Pittner, L. Pollack,
   R. M. Richard, P. Sadayappan, G. C. Schatz, W. A. Shelton, D. W. Silverstein,
   D. M. A. Smith, T. A. Soares, D. Song, M. Swart, H. L. Taylor, G. S. Thomas,
            V. Tipparaju, D. G. Truhlar, K. Tsemekhman, T. Van Voorhis,
     . Vzquez-Mayagoitia, P. Verma, O. Villa, A. Vishnu, K. D. Vogiatzis,
        D. Wang, J. H. Weare, M. J. Williamson, T. L. Windus, K. Woliski,
        A. T. Wong, Q. Wu, C. Yang, Q. Yu, M. Zacharias, Z. Zhang, Y. Zhao,
                                and R. J. Harrison
                        "NWChem: Past, present, and future
                         J. Chem. Phys. 152, 184102 (2020)
                               doi:10.1063/5.0004997
 
                                      AUTHORS
                                      -------
     E. Apra, E. J. Bylaska, N. Govind, K. Kowalski, M. Valiev, W. A. de Jong,
      T. P. Straatsma, H. J. J. van Dam, D. Wang, T. L. Windus, N. P. Bauman,
       A. Panyala, J. Hammond, J. Autschbach, K. Bhaskaran-Nair, J. Brabec,
    K. Lopata, S. A. Fischer, S. Krishnamoorthy, M. Jacquelin, W. Ma, M. Klemm,
       O. Villa, Y. Chen, V. Anisimov, F. Aquino, S. Hirata, M. T. Hackler,
           Eric Hermes, L. Jensen, J. E. Moore, J. C. Becca, V. Konjkov,
            D. Mejia-Rodriguez, T. Risthaus, M. Malagoli, A. Marenich,
   A. Otero-de-la-Roza, J. Mullin, P. Nichols, R. Peverati, J. Pittner, Y. Zhao,
        P.-D. Fan, A. Fonari, M. J. Williamson, R. J. Harrison, J. R. Rehr,
      M. Dupuis, D. Silverstein, D. M. A. Smith, J. Nieplocha, V. Tipparaju,
      M. Krishnan, B. E. Van Kuiken, A. Vazquez-Mayagoitia, M. Swart, Q. Wu,
   T. Van Voorhis, A. A. Auer, M. Nooijen, L. D. Crosby, E. Brown, G. Cisneros,
     G. I. Fann, H. Fruchtl, J. Garza, K. Hirao, R. A. Kendall, J. A. Nichols,
       K. Tsemekhman, K. Wolinski, J. Anchell, D. E. Bernholdt, P. Borowski,
       T. Clark, D. Clerc, H. Dachsel, M. J. O. Deegan, K. Dyall, D. Elwood,
      E. Glendening, M. Gutowski, A. C. Hess, J. Jaffe, B. G. Johnson, J. Ju,
        R. Kobayashi, R. Kutteh, Z. Lin, R. Littlefield, X. Long, B. Meng,
      T. Nakajima, S. Niu, L. Pollack, M. Rosing, K. Glaesemann, G. Sandrone,
      M. Stave, H. Taylor, G. Thomas, J. H. van Lenthe, A. T. Wong, Z. Zhang.

 Total times  cpu:        2.1s     wall:        2.4s
