 
             Northwest Computational Chemistry Package (NWChem) 7.0.0
             --------------------------------------------------------
 
 
                    Environmental Molecular Sciences Laboratory
                       Pacific Northwest National Laboratory
                                Richland, WA 99352
 
                              Copyright (c) 1994-2020
                       Pacific Northwest National Laboratory
                            Battelle Memorial Institute
 
             NWChem is an open-source computational chemistry package
                        distributed under the terms of the
                      Educational Community License (ECL) 2.0
             A copy of the license is included with this distribution
                              in the LICENSE.TXT file
 
                                  ACKNOWLEDGMENT
                                  --------------

            This software and its documentation were developed at the
            EMSL at Pacific Northwest National Laboratory, a multiprogram
            national laboratory, operated for the U.S. Department of Energy
            by Battelle under Contract Number DE-AC05-76RL01830. Support
            for this work was provided by the Department of Energy Office
            of Biological and Environmental Research, Office of Basic
            Energy Sciences, and the Office of Advanced Scientific Computing.


                                NWChem Input Module
                                -------------------
 
 
 Summary of "ao basis" -> "" (spherical)
 ------------------------------------------------------------------------------
       Tag                 Description            Shells   Functions and Types
 ---------------- ------------------------------  ------  ---------------------
 *                        ahlrichs_vtz                on all atoms 



 Scaling coordinates for geometry "geometry" by  1.889725989
 (inverse scale =  0.529177249)

 
 
                             Geometry "geometry" -> ""
                             -------------------------
 
 Output coordinates in angstroms (scale by  1.889725989 to convert to a.u.)
 
  No.       Tag          Charge          X              Y              Z
 ---- ---------------- ---------- -------------- -------------- --------------
    1 C                    6.0000     0.61546000     1.06018640    -0.10028699
    2 C                    6.0000     1.75640912     0.63063739    -0.66249936
    3 H                    1.0000     0.37301903     2.12924042    -0.14638717
    4 C                    6.0000    -0.40017185     0.22125248     0.58785931
    5 H                    1.0000     2.43441174     1.31670018    -1.17223681
    6 H                    1.0000     2.05826837    -0.41837068    -0.63063593
    7 C                    6.0000    -0.42779126    -1.29624561     0.46359400
    8 C                    6.0000    -1.50698920    -0.47297638    -0.22909987
    9 H                    1.0000    -0.73856893     0.62383387     1.54613811
   10 H                    1.0000    -1.44779451    -0.37778950    -1.31246928
   11 H                    1.0000    -2.51712340    -0.48299086     0.17852655
   12 H                    1.0000    -0.70417372    -1.87250433     1.34530863
   13 H                    1.0000     0.32046070    -1.77524483    -0.16564681
 
      Atomic Mass 
      ----------- 
 
      C                 12.000000
      H                  1.007825
 

 Effective nuclear repulsion energy (a.u.)     163.6275154761

            Nuclear Dipole moment (a.u.) 
            ----------------------------
        X                 Y               Z
 ---------------- ---------------- ----------------
    -0.0000000000    -0.0000000000     0.0000000000
 
 
            XYZ format geometry
            -------------------
    13
 geometry
 C                     0.61546000     1.06018640    -0.10028699
 C                     1.75640912     0.63063739    -0.66249936
 H                     0.37301903     2.12924042    -0.14638717
 C                    -0.40017185     0.22125248     0.58785931
 H                     2.43441174     1.31670018    -1.17223681
 H                     2.05826837    -0.41837068    -0.63063593
 C                    -0.42779126    -1.29624561     0.46359400
 C                    -1.50698920    -0.47297638    -0.22909987
 H                    -0.73856893     0.62383387     1.54613811
 H                    -1.44779451    -0.37778950    -1.31246928
 H                    -2.51712340    -0.48299086     0.17852655
 H                    -0.70417372    -1.87250433     1.34530863
 H                     0.32046070    -1.77524483    -0.16564681
 
 ==============================================================================
                                internuclear distances
 ------------------------------------------------------------------------------
       center one      |      center two      | atomic units |  angstroms
 ------------------------------------------------------------------------------
    2 C                |   1 C                |     2.53699  |     1.34252
    3 H                |   1 C                |     2.07335  |     1.09717
    4 C                |   1 C                |     2.80856  |     1.48622
    5 H                |   2 C                |     2.06162  |     1.09096
    6 H                |   2 C                |     2.06366  |     1.09204
    7 C                |   4 C                |     2.87773  |     1.52283
    8 C                |   4 C                |     2.91191  |     1.54092
    8 C                |   7 C                |     2.87975  |     1.52390
    9 H                |   4 C                |     2.06567  |     1.09311
   10 H                |   8 C                |     2.05820  |     1.08915
   11 H                |   8 C                |     2.05853  |     1.08933
   12 H                |   7 C                |     2.05788  |     1.08898
   13 H                |   7 C                |     2.05734  |     1.08870
 ------------------------------------------------------------------------------
                         number of included internuclear distances:         13
 ==============================================================================



 ==============================================================================
                                 internuclear angles
 ------------------------------------------------------------------------------
        center 1       |       center 2       |       center 3       |  degrees
 ------------------------------------------------------------------------------
    2 C                |   1 C                |   3 H                |   118.81
    2 C                |   1 C                |   4 C                |   126.45
    3 H                |   1 C                |   4 C                |   114.74
    1 C                |   2 C                |   5 H                |   121.51
    1 C                |   2 C                |   6 H                |   122.01
    5 H                |   2 C                |   6 H                |   116.48
    1 C                |   4 C                |   7 C                |   122.49
    1 C                |   4 C                |   8 C                |   119.98
    1 C                |   4 C                |   9 H                |   114.18
    4 C                |   7 C                |   8 C                |    60.76
    7 C                |   4 C                |   9 H                |   115.65
    8 C                |   4 C                |   9 H                |   114.10
    4 C                |   7 C                |   8 C                |    60.76
    4 C                |   7 C                |  12 H                |   117.77
    4 C                |   7 C                |  13 H                |   118.24
    8 C                |   7 C                |  12 H                |   118.31
    8 C                |   7 C                |  13 H                |   117.50
   12 H                |   7 C                |  13 H                |   114.18
    8 C                |   7 C                |   4 C                |    60.76
    4 C                |   8 C                |  10 H                |   116.68
    4 C                |   8 C                |  11 H                |   118.15
    7 C                |   8 C                |  10 H                |   117.44
    7 C                |   8 C                |  11 H                |   118.79
   10 H                |   8 C                |  11 H                |   115.05
 ------------------------------------------------------------------------------
                            number of included internuclear angles:         24
 ==============================================================================



                              Aldehyde and Ketone set
                              -----------------------
 
                                 NWChem DFT Module
                                 -----------------
 
 
                              Aldehyde and Ketone set
 
 
                      Basis "ao basis" -> "ao basis" (spherical)
                      -----
  C (Carbon)
  ----------
            Exponent  Coefficients 
       -------------- ---------------------------------------------------------
  1 S  8.50603840E+03  0.000534
  1 S  1.27573290E+03  0.004125
  1 S  2.90311870E+02  0.021171
  1 S  8.20562000E+01  0.082418
  1 S  2.64796410E+01  0.240129
 
  2 S  9.24145850E+00  1.000000
 
  3 S  3.36435300E+00  1.000000
 
  4 S  8.71741640E-01  1.000000
 
  5 S  3.63523520E-01  1.000000
 
  6 S  1.28731350E-01  1.000000
 
  7 P  3.47094960E+01  0.005330
  7 P  7.95908830E+00  0.035866
  7 P  2.37869720E+00  0.142003
  7 P  8.15400650E-01  0.342031
 
  8 P  2.89537850E-01  1.000000
 
  9 P  1.00847540E-01  1.000000
 
  H (Hydrogen)
  ------------
            Exponent  Coefficients 
       -------------- ---------------------------------------------------------
  1 S  3.40613410E+01  0.006025
  1 S  5.12357460E+00  0.045021
  1 S  1.16466260E+00  0.201897
 
  2 S  3.27230410E-01  1.000000
 
  3 S  1.03072410E-01  1.000000
 


 Summary of "ao basis" -> "ao basis" (spherical)
 ------------------------------------------------------------------------------
       Tag                 Description            Shells   Functions and Types
 ---------------- ------------------------------  ------  ---------------------
 C                        ahlrichs vtz               9       15   6s3p
 H                        ahlrichs vtz               3        3   3s




 Summary of "ao basis" -> "ao basis" (spherical)
 ------------------------------------------------------------------------------
       Tag                 Description            Shells   Functions and Types
 ---------------- ------------------------------  ------  ---------------------
 C                        ahlrichs vtz               9       15   6s3p
 H                        ahlrichs vtz               3        3   3s


  Caching 1-el integrals 
 
            General Information
            -------------------
          SCF calculation type: DFT
          Wavefunction type:  closed shell.
          No. of atoms     :    13
          No. of electrons :    38
           Alpha electrons :    19
            Beta electrons :    19
          Charge           :     0
          Spin multiplicity:     1
          Use of symmetry is: off; symmetry adaption is: off
          Maximum number of iterations: 999
          This is a Direct SCF calculation.
          AO basis - number of functions:    99
                     number of shells:    69
          Convergence on energy requested:  1.00D-08
          Convergence on density requested:  1.00D-07
          Convergence on gradient requested:  1.00D-06
 
              XC Information
              --------------
                        PBE96 Method XC Functional
          PerdewBurkeErnzerhof Exchange Functional  1.000          
            Perdew 1991 LDA Correlation Functional  1.000 local    
           PerdewBurkeErnz. Correlation Functional  1.000 non-local
 
             Grid Information
             ----------------
          Grid used for XC integration:  fine      
          Radial quadrature: Mura-Knowles        
          Angular quadrature: Lebedev. 
          Tag              B.-S. Rad. Rad. Pts. Rad. Cut. Ang. Pts.
          ---              ---------- --------- --------- ---------
          C                   0.70       70          12.0       590
          H                   0.35       60          13.0       590
          Grid pruning is: on 
          Number of quadrature shells:   830
          Spatial weights used:  Erf1
 
          Convergence Information
          -----------------------
          Convergence aids based upon iterative change in 
          total energy or number of iterations. 
          Levelshifting, if invoked, occurs when the 
          HOMO/LUMO gap drops below (HL_TOL):  1.00D-02
          DIIS, if invoked, will attempt to extrapolate 
          using up to (NFOCK): 10 stored Fock matrices.

                    Damping( 0%)  Levelshifting(0.5)       DIIS
                  --------------- ------------------- ---------------
          dE  on:    start            ASAP                start   
          dE off:    2 iters        999 iters           999 iters 

 
      Screening Tolerance Information
      -------------------------------
          Density screening/tol_rho:  1.00D-12
          AO Gaussian exp screening on grid/accAOfunc:  18
          CD Gaussian exp screening on grid/accCDfunc:  20
          XC Gaussian exp screening on grid/accXCfunc:  20
          Schwarz screening/accCoul:  1.00D-12

      Dispersion Parameters
      ---------------------

           DFT-D3BJ Model   
          s6 scale factor  :        1.000000000000
          s8 scale factor  :        0.787500000000
          a1 parameter     :        0.428900000000
          a2 parameter     :        4.440700000000
              vdW contrib  :       -0.009440646147


 Forcing the number of linearly dependent vectors to be  0
 
      Superposition of Atomic Density Guess
      -------------------------------------
 
 Sum of atomic energies:        -192.35419923
   Time after variat. SCF:      0.2
   Time prior to 1st pass:      0.2

 Grid_pts file          = ./21_cPrCHCH2.gridpts.00
 Record size in doubles =  12289        No. of grid_pts per rec  =   3070
 Max. records in memory =     13        Max. recs in file   =  67550051

 Grid integrated density:      38.000014895043
 Requested integration accuracy:   0.10E-06

           Memory utilization after 1st SCF pass: 
           Heap Space remaining (MW):        0.00                 226
          Stack Space remaining (MW):      288.36           288357484

   convergence    iter        energy       DeltaE   RMS-Dens  Diis-err    time
 ---------------- ----- ----------------- --------- --------- ---------  ------
 d= 0,ls=0.0,diis     1   -195.7560347723 -3.59D+02  2.94D-02  5.79D+01     0.4
 Grid integrated density:      38.000005535862
 Requested integration accuracy:   0.10E-06
 d= 0,ls=0.0,diis     2   -194.8467337372  9.09D-01  1.86D-02  1.34D+00     0.7
 Grid integrated density:      38.000006761799
 Requested integration accuracy:   0.10E-06
 d= 0,ls=0.0,diis     3   -194.6704768053  1.76D-01  1.33D-02  2.55D+00     1.0
 Grid integrated density:      38.000006550871
 Requested integration accuracy:   0.10E-06
 d= 0,ls=0.0,diis     4   -195.0333917646 -3.63D-01  1.90D-03  1.79D-02     1.3
 Grid integrated density:      38.000006777579
 Requested integration accuracy:   0.10E-06
 d= 0,ls=0.0,diis     5   -195.0327674971  6.24D-04  9.11D-04  2.37D-02     1.6
 Grid integrated density:      38.000006561296
 Requested integration accuracy:   0.10E-06
 d= 0,ls=0.0,diis     6   -195.0359136645 -3.15D-03  2.35D-04  8.74D-04     1.9
 Grid integrated density:      38.000006561001
 Requested integration accuracy:   0.10E-06
 d= 0,ls=0.0,diis     7   -195.0360257107 -1.12D-04  7.05D-05  6.24D-05     2.2
 Grid integrated density:      38.000006578630
 Requested integration accuracy:   0.10E-06
 d= 0,ls=0.0,diis     8   -195.0360337372 -8.03D-06  1.86D-05  1.03D-06     2.5
 Grid integrated density:      38.000006575131
 Requested integration accuracy:   0.10E-06
 d= 0,ls=0.0,diis     9   -195.0360339100 -1.73D-07  3.08D-06  9.72D-08     2.7
 Grid integrated density:      38.000006575210
 Requested integration accuracy:   0.10E-06
 d= 0,ls=0.0,diis    10   -195.0360339190 -9.04D-09  1.52D-06  3.52D-08     3.0
 Grid integrated density:      38.000006575419
 Requested integration accuracy:   0.10E-06
 d= 0,ls=0.0,diis    11   -195.0360339237 -4.67D-09  1.87D-07  1.63D-10     3.3
 Grid integrated density:      38.000006575387
 Requested integration accuracy:   0.10E-06
 d= 0,ls=0.0,diis    12   -195.0360339237 -2.03D-11  5.38D-08  5.21D-11     3.5


         Total DFT energy =     -195.036033923688
      One electron energy =     -584.856838784208
           Coulomb energy =      255.959127996096
          Exchange energy =      -28.529405889660
       Correlation energy =       -1.226992075891
 Nuclear repulsion energy =      163.627515476123

    Dispersion correction =       -0.009440646147

 Numeric. integr. density =       38.000006575387

     Total iterative time =      3.3s


 
                       DFT Final Molecular Orbital Analysis
                       ------------------------------------
 
 Vector    1  Occ=2.000000D+00  E=-9.909966D+00
              MO Center= -4.0D-01,  2.2D-01,  5.9D-01, r^2= 2.8D-02
   Bfn.  Coefficient  Atom+Function         Bfn.  Coefficient  Atom+Function  
  ----- ------------  ---------------      ----- ------------  ---------------
    35      0.424317   4 C  s                36      0.359272   4 C  s         
    34      0.308829   4 C  s                37      0.057998   4 C  s         
 
 Vector    2  Occ=2.000000D+00  E=-9.899503D+00
              MO Center= -1.5D+00, -4.7D-01, -2.3D-01, r^2= 3.1D-02
   Bfn.  Coefficient  Atom+Function         Bfn.  Coefficient  Atom+Function  
  ----- ------------  ---------------      ----- ------------  ---------------
    71      0.423980   8 C  s                72      0.359224   8 C  s         
    70      0.308634   8 C  s                73      0.057394   8 C  s         
 
 Vector    3  Occ=2.000000D+00  E=-9.898942D+00
              MO Center=  6.2D-01,  1.1D+00, -1.0D-01, r^2= 2.9D-02
   Bfn.  Coefficient  Atom+Function         Bfn.  Coefficient  Atom+Function  
  ----- ------------  ---------------      ----- ------------  ---------------
     2      0.424131   1 C  s                 3      0.359350   1 C  s         
     1      0.308725   1 C  s                 4      0.057970   1 C  s         
 
 Vector    4  Occ=2.000000D+00  E=-9.897731D+00
              MO Center= -4.3D-01, -1.3D+00,  4.6D-01, r^2= 3.1D-02
   Bfn.  Coefficient  Atom+Function         Bfn.  Coefficient  Atom+Function  
  ----- ------------  ---------------      ----- ------------  ---------------
    56      0.423986   7 C  s                57      0.359188   7 C  s         
    55      0.308635   7 C  s                58      0.057543   7 C  s         
 
 Vector    5  Occ=2.000000D+00  E=-9.882921D+00
              MO Center=  1.8D+00,  6.3D-01, -6.6D-01, r^2= 2.9D-02
   Bfn.  Coefficient  Atom+Function         Bfn.  Coefficient  Atom+Function  
  ----- ------------  ---------------      ----- ------------  ---------------
    17      0.424082   2 C  s                18      0.359482   2 C  s         
    16      0.308733   2 C  s                19      0.057575   2 C  s         
 
 Vector    6  Occ=2.000000D+00  E=-7.907423D-01
              MO Center= -6.3D-01, -3.6D-01,  2.5D-01, r^2= 1.3D+00
   Bfn.  Coefficient  Atom+Function         Bfn.  Coefficient  Atom+Function  
  ----- ------------  ---------------      ----- ------------  ---------------
    38      0.326354   4 C  s                59      0.275881   7 C  s         
    74      0.275101   8 C  s                 5      0.126894   1 C  s         
    36     -0.089629   4 C  s                57     -0.080398   7 C  s         
    72     -0.079261   8 C  s                62      0.078534   7 C  py        
    35     -0.072817   4 C  s                76      0.071777   8 C  px        
 
 Vector    7  Occ=2.000000D+00  E=-6.908915D-01
              MO Center=  8.7D-01,  6.7D-01, -2.8D-01, r^2= 2.0D+00
   Bfn.  Coefficient  Atom+Function         Bfn.  Coefficient  Atom+Function  
  ----- ------------  ---------------      ----- ------------  ---------------
     5      0.370812   1 C  s                20      0.339875   2 C  s         
    74     -0.140460   8 C  s                59     -0.138808   7 C  s         
     3     -0.109050   1 C  s                18     -0.102051   2 C  s         
    21      0.091580   2 C  s                 2     -0.085701   1 C  s         
     4      0.080690   1 C  s                39      0.080688   4 C  s         
 
 Vector    8  Occ=2.000000D+00  E=-5.701940D-01
              MO Center=  3.8D-01,  2.8D-01,  7.2D-02, r^2= 3.2D+00
   Bfn.  Coefficient  Atom+Function         Bfn.  Coefficient  Atom+Function  
  ----- ------------  ---------------      ----- ------------  ---------------
    38      0.312604   4 C  s                20     -0.284055   2 C  s         
    59     -0.208663   7 C  s                 5      0.155300   1 C  s         
     7     -0.132289   1 C  px               41      0.103855   4 C  py        
    74     -0.103394   8 C  s                10     -0.091616   1 C  px        
    18      0.081286   2 C  s                 9      0.079510   1 C  pz        
 
 Vector    9  Occ=2.000000D+00  E=-5.419530D-01
              MO Center= -1.0D+00, -7.7D-01,  3.6D-02, r^2= 2.3D+00
   Bfn.  Coefficient  Atom+Function         Bfn.  Coefficient  Atom+Function  
  ----- ------------  ---------------      ----- ------------  ---------------
    74      0.392303   8 C  s                59     -0.320701   7 C  s         
    75      0.139590   8 C  s                60     -0.108204   7 C  s         
    72     -0.097626   8 C  s                92      0.097939  11 H  s         
    89      0.096543  10 H  s                88      0.091013  10 H  s         
    91      0.091453  11 H  s                95     -0.080915  12 H  s         
 
 Vector   10  Occ=2.000000D+00  E=-4.849871D-01
              MO Center=  2.9D-01,  1.1D-01, -4.5D-02, r^2= 4.0D+00
   Bfn.  Coefficient  Atom+Function         Bfn.  Coefficient  Atom+Function  
  ----- ------------  ---------------      ----- ------------  ---------------
     5      0.238167   1 C  s                38     -0.236071   4 C  s         
    20     -0.202440   2 C  s                59      0.148110   7 C  s         
    62     -0.110320   7 C  py               22     -0.101916   2 C  px        
    78     -0.096576   8 C  pz               32      0.095736   3 H  s         
    42     -0.086818   4 C  pz               53     -0.086674   6 H  s         
 
 Vector   11  Occ=2.000000D+00  E=-4.546773D-01
              MO Center= -3.4D-01, -1.5D-01,  2.4D-01, r^2= 3.5D+00
   Bfn.  Coefficient  Atom+Function         Bfn.  Coefficient  Atom+Function  
  ----- ------------  ---------------      ----- ------------  ---------------
     8      0.149797   1 C  py               42      0.146883   4 C  pz        
    63      0.138487   7 C  pz               45      0.127664   4 C  pz        
    76     -0.127584   8 C  px               66      0.119603   7 C  pz        
    11      0.109554   1 C  py               23      0.108078   2 C  py        
    79     -0.103854   8 C  px               78      0.097928   8 C  pz        
 
 Vector   12  Occ=2.000000D+00  E=-4.237201D-01
              MO Center= -1.8D-01, -1.9D-01,  2.9D-02, r^2= 3.7D+00
   Bfn.  Coefficient  Atom+Function         Bfn.  Coefficient  Atom+Function  
  ----- ------------  ---------------      ----- ------------  ---------------
    76     -0.167250   8 C  px               62     -0.165777   7 C  py        
    41      0.161696   4 C  py               23     -0.140942   2 C  py        
    79     -0.130353   8 C  px               65     -0.125909   7 C  py        
    44      0.124633   4 C  py               78     -0.108021   8 C  pz        
    26     -0.105577   2 C  py                9      0.093524   1 C  pz        
 
 Vector   13  Occ=2.000000D+00  E=-3.950701D-01
              MO Center=  8.6D-01,  5.6D-01, -4.3D-01, r^2= 3.7D+00
   Bfn.  Coefficient  Atom+Function         Bfn.  Coefficient  Atom+Function  
  ----- ------------  ---------------      ----- ------------  ---------------
    22      0.221825   2 C  px                8      0.164175   1 C  py        
    50      0.155590   5 H  s                 7     -0.150634   1 C  px        
    25      0.151081   2 C  px               24     -0.144337   2 C  pz        
    11      0.128432   1 C  py               49      0.125619   5 H  s         
    27     -0.101802   2 C  pz               10     -0.095910   1 C  px        
 
 Vector   14  Occ=2.000000D+00  E=-3.443723D-01
              MO Center=  3.1D-01,  3.0D-01, -1.0D-01, r^2= 3.8D+00
   Bfn.  Coefficient  Atom+Function         Bfn.  Coefficient  Atom+Function  
  ----- ------------  ---------------      ----- ------------  ---------------
    23      0.200851   2 C  py                7      0.181994   1 C  px        
    26      0.158284   2 C  py               78     -0.152969   8 C  pz        
    42      0.151908   4 C  pz               53     -0.146849   6 H  s         
    10      0.134432   1 C  px               81     -0.130337   8 C  pz        
    86      0.120325   9 H  s                45      0.119702   4 C  pz        
 
 Vector   15  Occ=2.000000D+00  E=-3.254918D-01
              MO Center= -7.2D-01, -1.0D+00,  2.2D-01, r^2= 2.6D+00
   Bfn.  Coefficient  Atom+Function         Bfn.  Coefficient  Atom+Function  
  ----- ------------  ---------------      ----- ------------  ---------------
    63      0.222903   7 C  pz               66      0.188334   7 C  pz        
    95      0.177189  12 H  s                98     -0.164904  13 H  s         
    78     -0.157155   8 C  pz               81     -0.134404   8 C  pz        
    94      0.134556  12 H  s                61     -0.132601   7 C  px        
    97     -0.126991  13 H  s                89      0.122929  10 H  s         
 
 Vector   16  Occ=2.000000D+00  E=-3.096642D-01
              MO Center=  3.9D-01,  4.6D-01, -1.8D-01, r^2= 4.1D+00
   Bfn.  Coefficient  Atom+Function         Bfn.  Coefficient  Atom+Function  
  ----- ------------  ---------------      ----- ------------  ---------------
    23     -0.162072   2 C  py                8      0.159556   1 C  py        
    50     -0.159946   5 H  s                42      0.153684   4 C  pz        
    45      0.138876   4 C  pz               53      0.138627   6 H  s         
    40     -0.136084   4 C  px               26     -0.134570   2 C  py        
    11      0.131696   1 C  py               51     -0.123318   5 H  s         
 
 Vector   17  Occ=2.000000D+00  E=-2.823342D-01
              MO Center= -2.5D-01,  2.3D-02,  4.6D-02, r^2= 3.0D+00
   Bfn.  Coefficient  Atom+Function         Bfn.  Coefficient  Atom+Function  
  ----- ------------  ---------------      ----- ------------  ---------------
    77      0.233011   8 C  py                9     -0.199974   1 C  pz        
    40     -0.200435   4 C  px               43     -0.184028   4 C  px        
    80      0.182549   8 C  py               12     -0.171669   1 C  pz        
    60     -0.127709   7 C  s                65     -0.126926   7 C  py        
    22     -0.116804   2 C  px               62     -0.106855   7 C  py        
 
 Vector   18  Occ=2.000000D+00  E=-2.606870D-01
              MO Center= -5.0D-01, -4.7D-01,  3.0D-01, r^2= 2.5D+00
   Bfn.  Coefficient  Atom+Function         Bfn.  Coefficient  Atom+Function  
  ----- ------------  ---------------      ----- ------------  ---------------
    41      0.215700   4 C  py               61     -0.209041   7 C  px        
    44      0.202401   4 C  py               64     -0.167769   7 C  px        
    62     -0.162225   7 C  py               63     -0.156812   7 C  pz        
    65     -0.141118   7 C  py               77     -0.133785   8 C  py        
    66     -0.127996   7 C  pz               79      0.126358   8 C  px        
 
 Vector   19  Occ=2.000000D+00  E=-2.185937D-01
              MO Center=  5.8D-01,  4.4D-01, -2.4D-01, r^2= 3.2D+00
   Bfn.  Coefficient  Atom+Function         Bfn.  Coefficient  Atom+Function  
  ----- ------------  ---------------      ----- ------------  ---------------
    24      0.243287   2 C  pz               27      0.228470   2 C  pz        
     9      0.182468   1 C  pz               12      0.174197   1 C  pz        
    77      0.168099   8 C  py               30      0.142728   2 C  pz        
    80      0.142124   8 C  py               75      0.128336   8 C  s         
     7      0.122141   1 C  px               22      0.112734   2 C  px        
 
 Vector   20  Occ=0.000000D+00  E=-2.580398D-02
              MO Center=  9.8D-01,  7.2D-01, -3.3D-01, r^2= 3.1D+00
   Bfn.  Coefficient  Atom+Function         Bfn.  Coefficient  Atom+Function  
  ----- ------------  ---------------      ----- ------------  ---------------
    30      0.498270   2 C  pz               15     -0.444749   1 C  pz        
    75     -0.346896   8 C  s                13     -0.320155   1 C  px        
    12     -0.294571   1 C  pz                9     -0.272701   1 C  pz        
    27      0.267328   2 C  pz               28      0.264152   2 C  px        
    24      0.253925   2 C  pz               87      0.165948   9 H  s         
 
 Vector   21  Occ=0.000000D+00  E= 2.977261D-02
              MO Center= -9.1D-01,  6.5D-02,  1.0D+00, r^2= 7.2D+00
   Bfn.  Coefficient  Atom+Function         Bfn.  Coefficient  Atom+Function  
  ----- ------------  ---------------      ----- ------------  ---------------
    87      1.392844   9 H  s                60     -0.932891   7 C  s         
    93      0.917666  11 H  s                96      0.904546  12 H  s         
    39     -0.860422   4 C  s                75     -0.862840   8 C  s         
    33      0.765030   3 H  s                48     -0.706874   4 C  pz        
     6     -0.647483   1 C  s                21     -0.473630   2 C  s         
 
 Vector   22  Occ=0.000000D+00  E= 4.070414D-02
              MO Center=  6.8D-01, -8.7D-01, -3.7D-01, r^2= 6.6D+00
   Bfn.  Coefficient  Atom+Function         Bfn.  Coefficient  Atom+Function  
  ----- ------------  ---------------      ----- ------------  ---------------
    60      1.649644   7 C  s                99     -1.279688  13 H  s         
    21      1.227856   2 C  s                54     -0.980229   6 H  s         
    39     -0.802673   4 C  s                87      0.665915   9 H  s         
    90     -0.589201  10 H  s                 6     -0.548396   1 C  s         
    69     -0.452791   7 C  pz               33      0.412087   3 H  s         
 
 Vector   23  Occ=0.000000D+00  E= 5.566392D-02
              MO Center=  4.6D-01,  1.0D+00, -2.4D-01, r^2= 9.5D+00
   Bfn.  Coefficient  Atom+Function         Bfn.  Coefficient  Atom+Function  
  ----- ------------  ---------------      ----- ------------  ---------------
    33      1.675408   3 H  s                21     -1.429860   2 C  s         
    60      1.410802   7 C  s                51      1.224735   5 H  s         
    96     -1.043874  12 H  s                14     -1.008458   1 C  py        
     6     -0.718398   1 C  s                47      0.664155   4 C  py        
    93     -0.564646  11 H  s                87     -0.559431   9 H  s         
 
 Vector   24  Occ=0.000000D+00  E= 6.024531D-02
              MO Center= -1.1D+00, -3.5D-01, -5.3D-01, r^2= 7.5D+00
   Bfn.  Coefficient  Atom+Function         Bfn.  Coefficient  Atom+Function  
  ----- ------------  ---------------      ----- ------------  ---------------
    75      2.675017   8 C  s                90     -1.351745  10 H  s         
    39     -0.809552   4 C  s                21     -0.784231   2 C  s         
    60     -0.771155   7 C  s                93     -0.738355  11 H  s         
    54      0.510281   6 H  s                67      0.507372   7 C  px        
    87      0.495361   9 H  s                51      0.428508   5 H  s         
 
 Vector   25  Occ=0.000000D+00  E= 8.815887D-02
              MO Center= -3.3D-01, -3.6D-01,  5.1D-01, r^2= 8.6D+00
   Bfn.  Coefficient  Atom+Function         Bfn.  Coefficient  Atom+Function  
  ----- ------------  ---------------      ----- ------------  ---------------
    39      2.733297   4 C  s                60     -1.638718   7 C  s         
     6     -1.383264   1 C  s                96      1.125160  12 H  s         
    33      1.073434   3 H  s                87     -1.034302   9 H  s         
    21      0.825084   2 C  s                69     -0.678934   7 C  pz        
    68     -0.638484   7 C  py               54     -0.540361   6 H  s         
 
 Vector   26  Occ=0.000000D+00  E= 9.796179D-02
              MO Center= -7.4D-01, -3.1D-01,  1.9D-01, r^2= 4.5D+00
   Bfn.  Coefficient  Atom+Function         Bfn.  Coefficient  Atom+Function  
  ----- ------------  ---------------      ----- ------------  ---------------
    83      1.088381   8 C  py               46      1.068311   4 C  px        
    75      0.856220   8 C  s                 6      0.723279   1 C  s         
    47     -0.712246   4 C  py               33     -0.691861   3 H  s         
    67     -0.645488   7 C  px               48      0.639836   4 C  pz        
    69     -0.634576   7 C  pz               60     -0.619661   7 C  s         
 
 Vector   27  Occ=0.000000D+00  E= 1.002758D-01
              MO Center=  2.0D-01,  3.8D-01, -4.8D-01, r^2= 1.1D+01
   Bfn.  Coefficient  Atom+Function         Bfn.  Coefficient  Atom+Function  
  ----- ------------  ---------------      ----- ------------  ---------------
    21      1.896434   2 C  s                51     -1.594079   5 H  s         
    39     -1.532426   4 C  s                93     -1.528979  11 H  s         
    90      1.283838  10 H  s                 6     -1.160232   1 C  s         
    84      1.132066   8 C  pz               29      0.977042   2 C  py        
    33      0.950791   3 H  s                99      0.867675  13 H  s         
 
 Vector   28  Occ=0.000000D+00  E= 1.119610D-01
              MO Center=  6.9D-01,  6.3D-02, -4.4D-01, r^2= 9.7D+00
   Bfn.  Coefficient  Atom+Function         Bfn.  Coefficient  Atom+Function  
  ----- ------------  ---------------      ----- ------------  ---------------
    54      2.216900   6 H  s                51     -2.131780   5 H  s         
    29      2.060752   2 C  py               14     -1.749658   1 C  py        
    33      1.686596   3 H  s                90     -1.283970  10 H  s         
    96     -1.242242  12 H  s                84     -1.182305   8 C  pz        
    60      1.070832   7 C  s                 6     -1.058088   1 C  s         
 
 Vector   29  Occ=0.000000D+00  E= 1.420538D-01
              MO Center= -3.8D-01, -6.7D-01,  3.5D-01, r^2= 7.6D+00
   Bfn.  Coefficient  Atom+Function         Bfn.  Coefficient  Atom+Function  
  ----- ------------  ---------------      ----- ------------  ---------------
    87      2.376732   9 H  s                47     -1.923864   4 C  py        
    48     -1.867433   4 C  pz               96     -1.819208  12 H  s         
    99      1.433584  13 H  s                39      1.133631   4 C  s         
    90     -1.121898  10 H  s                84     -1.075811   8 C  pz        
    60     -1.037734   7 C  s                67     -1.028554   7 C  px        
 
 Vector   30  Occ=0.000000D+00  E= 1.517533D-01
              MO Center= -8.8D-01, -6.6D-01, -2.2D-01, r^2= 8.4D+00
   Bfn.  Coefficient  Atom+Function         Bfn.  Coefficient  Atom+Function  
  ----- ------------  ---------------      ----- ------------  ---------------
    93      2.498748  11 H  s                82      2.472004   8 C  px        
    99      1.643569  13 H  s                87     -1.476979   9 H  s         
    90     -1.376590  10 H  s                69      1.287115   7 C  pz        
    96     -1.244027  12 H  s                48      1.110148   4 C  pz        
    54     -0.973934   6 H  s                39     -0.782041   4 C  s         
 
 Vector   31  Occ=0.000000D+00  E= 1.579660D-01
              MO Center= -2.5D-01, -4.3D-01,  4.8D-01, r^2= 6.8D+00
   Bfn.  Coefficient  Atom+Function         Bfn.  Coefficient  Atom+Function  
  ----- ------------  ---------------      ----- ------------  ---------------
    68      2.024785   7 C  py               96      1.879963  12 H  s         
    46     -1.746454   4 C  px               39     -1.601040   4 C  s         
    14     -1.555244   1 C  py               75     -1.502766   8 C  s         
    82     -1.454726   8 C  px                6      1.389648   1 C  s         
    69     -1.371633   7 C  pz               93     -1.294302  11 H  s         
 
 Vector   32  Occ=0.000000D+00  E= 1.712409D-01
              MO Center= -2.3D-01, -7.7D-02, -1.8D-01, r^2= 8.1D+00
   Bfn.  Coefficient  Atom+Function         Bfn.  Coefficient  Atom+Function  
  ----- ------------  ---------------      ----- ------------  ---------------
    13      1.670909   1 C  px               51     -1.271893   5 H  s         
    21     -1.237275   2 C  s                48     -0.994904   4 C  pz        
    84      0.923540   8 C  pz               30     -0.913237   2 C  pz        
    28      0.894703   2 C  px               90      0.820709  10 H  s         
    39      0.772226   4 C  s                33      0.753828   3 H  s         
 
 Vector   33  Occ=0.000000D+00  E= 1.834123D-01
              MO Center=  1.4D+00,  4.9D-01, -4.6D-01, r^2= 7.5D+00
   Bfn.  Coefficient  Atom+Function         Bfn.  Coefficient  Atom+Function  
  ----- ------------  ---------------      ----- ------------  ---------------
     6      3.820977   1 C  s                14     -3.327045   1 C  py        
    33      2.692202   3 H  s                28      2.576031   2 C  px        
    39     -1.801581   4 C  s                48      1.773800   4 C  pz        
    21     -1.628163   2 C  s                51     -1.603509   5 H  s         
    46     -1.437233   4 C  px               87     -1.403793   9 H  s         
 
 Vector   34  Occ=0.000000D+00  E= 2.206437D-01
              MO Center=  2.8D-01, -1.6D-02, -2.9D-01, r^2= 7.0D+00
   Bfn.  Coefficient  Atom+Function         Bfn.  Coefficient  Atom+Function  
  ----- ------------  ---------------      ----- ------------  ---------------
    47      2.552638   4 C  py               29     -1.889929   2 C  py        
    54     -1.794420   6 H  s                46      1.604070   4 C  px        
    13      1.573700   1 C  px               99      1.253938  13 H  s         
    15     -1.209592   1 C  pz               82      1.181370   8 C  px        
    75      1.147004   8 C  s                14      1.083043   1 C  py        
 
 Vector   35  Occ=0.000000D+00  E= 2.288062D-01
              MO Center=  6.2D-01,  1.9D-01,  5.0D-01, r^2= 7.0D+00
   Bfn.  Coefficient  Atom+Function         Bfn.  Coefficient  Atom+Function  
  ----- ------------  ---------------      ----- ------------  ---------------
    47      2.062933   4 C  py               68      1.877182   7 C  py        
    99      1.854869  13 H  s                67     -1.591632   7 C  px        
    54     -1.456661   6 H  s                13      1.397159   1 C  px        
    29     -1.337836   2 C  py               84     -1.337646   8 C  pz        
    46      1.256356   4 C  px               28      1.075502   2 C  px        
 
 Vector   36  Occ=0.000000D+00  E= 2.448515D-01
              MO Center= -6.2D-01, -2.3D-01,  2.0D-01, r^2= 7.9D+00
   Bfn.  Coefficient  Atom+Function         Bfn.  Coefficient  Atom+Function  
  ----- ------------  ---------------      ----- ------------  ---------------
    84      2.624355   8 C  pz                6     -1.692983   1 C  s         
    90      1.670213  10 H  s                99     -1.272131  13 H  s         
    68     -1.184771   7 C  py               48     -1.014798   4 C  pz        
    13     -0.967516   1 C  px               30      0.906453   2 C  pz        
    21      0.826910   2 C  s                69     -0.823202   7 C  pz        
 
 Vector   37  Occ=0.000000D+00  E= 2.600018D-01
              MO Center=  5.1D-01,  6.2D-01,  3.6D-02, r^2= 7.5D+00
   Bfn.  Coefficient  Atom+Function         Bfn.  Coefficient  Atom+Function  
  ----- ------------  ---------------      ----- ------------  ---------------
    13      3.260788   1 C  px               21     -1.802583   2 C  s         
    28      1.452156   2 C  px                6      1.388388   1 C  s         
    54     -1.295550   6 H  s                39      1.172518   4 C  s         
    15     -1.092694   1 C  pz               99      0.865808  13 H  s         
    83      0.821741   8 C  py               47      0.698665   4 C  py        
 
 Vector   38  Occ=0.000000D+00  E= 2.752999D-01
              MO Center= -6.9D-01, -4.9D-01,  5.4D-02, r^2= 6.2D+00
   Bfn.  Coefficient  Atom+Function         Bfn.  Coefficient  Atom+Function  
  ----- ------------  ---------------      ----- ------------  ---------------
    46      2.390374   4 C  px               67     -2.107402   7 C  px        
    69      1.847442   7 C  pz               48     -1.679578   4 C  pz        
    87      1.624978   9 H  s                 6     -1.397095   1 C  s         
    99      1.382422  13 H  s                96     -1.135079  12 H  s         
    15     -0.673839   1 C  pz               82     -0.632934   8 C  px        
 
 Vector   39  Occ=0.000000D+00  E= 3.018231D-01
              MO Center=  5.8D-01,  5.3D-01, -9.6D-02, r^2= 7.1D+00
   Bfn.  Coefficient  Atom+Function         Bfn.  Coefficient  Atom+Function  
  ----- ------------  ---------------      ----- ------------  ---------------
    48      3.604401   4 C  pz               14     -2.660536   1 C  py        
    15     -2.242177   1 C  pz               87     -2.116908   9 H  s         
    47      1.900074   4 C  py                6      1.606852   1 C  s         
    46     -1.560662   4 C  px               60      1.500117   7 C  s         
    33      1.466721   3 H  s                21     -1.160395   2 C  s         
 
 Vector   40  Occ=0.000000D+00  E= 3.125201D-01
              MO Center=  2.5D-01, -6.3D-02, -1.7D-01, r^2= 6.3D+00
   Bfn.  Coefficient  Atom+Function         Bfn.  Coefficient  Atom+Function  
  ----- ------------  ---------------      ----- ------------  ---------------
    48     -2.508678   4 C  pz               54     -2.505076   6 H  s         
    46      2.436250   4 C  px               14      2.307695   1 C  py        
    99      2.253845  13 H  s                84      1.929727   8 C  pz        
    29     -1.783148   2 C  py               90      1.766365  10 H  s         
    87      1.606870   9 H  s                82     -1.570594   8 C  px        
 
 Vector   41  Occ=0.000000D+00  E= 3.316708D-01
              MO Center=  1.7D-01, -1.3D-01,  6.9D-02, r^2= 6.0D+00
   Bfn.  Coefficient  Atom+Function         Bfn.  Coefficient  Atom+Function  
  ----- ------------  ---------------      ----- ------------  ---------------
    48      3.361106   4 C  pz               13     -2.242097   1 C  px        
    46     -2.216641   4 C  px               47     -1.872718   4 C  py        
    87     -1.699306   9 H  s                82      1.660790   8 C  px        
    84     -1.575849   8 C  pz               15      1.462430   1 C  pz        
    69     -1.429548   7 C  pz               93      1.281527  11 H  s         
 
 Vector   42  Occ=0.000000D+00  E= 3.447192D-01
              MO Center= -4.6D-01,  7.9D-02, -1.1D-01, r^2= 6.3D+00
   Bfn.  Coefficient  Atom+Function         Bfn.  Coefficient  Atom+Function  
  ----- ------------  ---------------      ----- ------------  ---------------
    47      2.989848   4 C  py               13      2.444027   1 C  px        
    14     -1.841118   1 C  py               83     -1.459414   8 C  py        
    21     -1.364510   2 C  s                60      1.279673   7 C  s         
    33      1.255210   3 H  s                67      1.200814   7 C  px        
    46     -1.147622   4 C  px               54     -1.071327   6 H  s         
 
 Vector   43  Occ=0.000000D+00  E= 3.541182D-01
              MO Center= -3.8D-01, -1.3D-02,  1.7D-01, r^2= 5.3D+00
   Bfn.  Coefficient  Atom+Function         Bfn.  Coefficient  Atom+Function  
  ----- ------------  ---------------      ----- ------------  ---------------
    51      1.965032   5 H  s                29     -1.708797   2 C  py        
    48      1.469629   4 C  pz               21      1.139495   2 C  s         
    28     -1.139431   2 C  px               54     -1.079185   6 H  s         
    96     -1.024741  12 H  s                87     -1.008879   9 H  s         
    83      0.992318   8 C  py               13     -0.962034   1 C  px        
 
 Vector   44  Occ=0.000000D+00  E= 3.651411D-01
              MO Center= -7.2D-01, -5.6D-01,  2.1D-01, r^2= 4.2D+00
   Bfn.  Coefficient  Atom+Function         Bfn.  Coefficient  Atom+Function  
  ----- ------------  ---------------      ----- ------------  ---------------
    69      2.004393   7 C  pz               96     -1.706602  12 H  s         
    60     -1.346664   7 C  s                68     -1.224664   7 C  py        
    59      1.076546   7 C  s                47     -0.969231   4 C  py        
    82      0.924918   8 C  px               83     -0.887216   8 C  py        
    74     -0.774460   8 C  s                13     -0.743071   1 C  px        
 
 Vector   45  Occ=0.000000D+00  E= 3.799453D-01
              MO Center= -5.6D-01, -4.6D-01,  2.4D-01, r^2= 5.9D+00
   Bfn.  Coefficient  Atom+Function         Bfn.  Coefficient  Atom+Function  
  ----- ------------  ---------------      ----- ------------  ---------------
    47      2.059740   4 C  py               96      1.538699  12 H  s         
    15     -1.465217   1 C  pz               67      1.431249   7 C  px        
    14      1.380188   1 C  py               93      1.204424  11 H  s         
    33     -1.196913   3 H  s                68      1.082592   7 C  py        
    82      1.008076   8 C  px               38      0.984405   4 C  s         
 
 Vector   46  Occ=0.000000D+00  E= 3.883395D-01
              MO Center= -1.7D-01, -1.3D-01,  3.7D-01, r^2= 7.1D+00
   Bfn.  Coefficient  Atom+Function         Bfn.  Coefficient  Atom+Function  
  ----- ------------  ---------------      ----- ------------  ---------------
    14      3.054811   1 C  py               69     -2.762095   7 C  pz        
    29     -2.711512   2 C  py               46      2.609787   4 C  px        
    39      2.474726   4 C  s                99     -2.037430  13 H  s         
    87      1.903756   9 H  s                96      1.912455  12 H  s         
    54     -1.845095   6 H  s                15     -1.758661   1 C  pz        
 
 Vector   47  Occ=0.000000D+00  E= 4.092276D-01
              MO Center=  5.0D-01,  5.2D-01, -1.7D-01, r^2= 7.2D+00
   Bfn.  Coefficient  Atom+Function         Bfn.  Coefficient  Atom+Function  
  ----- ------------  ---------------      ----- ------------  ---------------
    48      3.800749   4 C  pz               29      3.250105   2 C  py        
    87     -3.077735   9 H  s                47      2.944956   4 C  py        
    54      2.565717   6 H  s                51     -2.525279   5 H  s         
    69     -2.331907   7 C  pz               84      2.027984   8 C  pz        
    96      2.031773  12 H  s                90      1.678312  10 H  s         
 
 Vector   48  Occ=0.000000D+00  E= 4.118894D-01
              MO Center=  1.0D-01,  6.0D-01,  1.3D-01, r^2= 6.6D+00
   Bfn.  Coefficient  Atom+Function         Bfn.  Coefficient  Atom+Function  
  ----- ------------  ---------------      ----- ------------  ---------------
    14      3.974929   1 C  py               33     -3.674984   3 H  s         
    21      3.230356   2 C  s                48     -2.676621   4 C  pz        
    87      2.180475   9 H  s                47     -2.089445   4 C  py        
    84     -1.910045   8 C  pz               13     -1.727856   1 C  px        
    93      1.689975  11 H  s                69      1.389516   7 C  pz        
 
 Vector   49  Occ=0.000000D+00  E= 4.327737D-01
              MO Center=  1.7D-01,  1.9D-02, -2.6D-01, r^2= 6.6D+00
   Bfn.  Coefficient  Atom+Function         Bfn.  Coefficient  Atom+Function  
  ----- ------------  ---------------      ----- ------------  ---------------
    14      2.459530   1 C  py               54     -2.199628   6 H  s         
    47      1.895643   4 C  py               84      1.813821   8 C  pz        
    29     -1.771139   2 C  py               90      1.779401  10 H  s         
    13      1.726649   1 C  px               15     -1.527250   1 C  pz        
    33     -1.483143   3 H  s                 6      1.365228   1 C  s         
 
 Vector   50  Occ=0.000000D+00  E= 4.507302D-01
              MO Center=  3.1D-01,  9.0D-01,  2.1D-01, r^2= 7.9D+00
   Bfn.  Coefficient  Atom+Function         Bfn.  Coefficient  Atom+Function  
  ----- ------------  ---------------      ----- ------------  ---------------
    14      4.537039   1 C  py               51      3.960401   5 H  s         
    29     -3.520211   2 C  py               33     -3.452849   3 H  s         
    87     -2.686555   9 H  s                28     -2.527801   2 C  px        
    48      2.271581   4 C  pz               39      2.087231   4 C  s         
    30      2.012196   2 C  pz               93      1.835893  11 H  s         
 
 Vector   51  Occ=0.000000D+00  E= 4.610234D-01
              MO Center= -7.4D-01, -7.0D-02, -4.7D-01, r^2= 6.5D+00
   Bfn.  Coefficient  Atom+Function         Bfn.  Coefficient  Atom+Function  
  ----- ------------  ---------------      ----- ------------  ---------------
    14      3.998516   1 C  py               90      3.069445  10 H  s         
    84      3.005422   8 C  pz               33     -2.650045   3 H  s         
    93     -2.571512  11 H  s                69     -2.527856   7 C  pz        
    99     -2.518920  13 H  s                21      2.341185   2 C  s         
    47     -2.330160   4 C  py               82     -1.926747   8 C  px        
 
 Vector   52  Occ=0.000000D+00  E= 4.732173D-01
              MO Center= -1.3D+00, -9.5D-01,  5.8D-01, r^2= 5.6D+00
   Bfn.  Coefficient  Atom+Function         Bfn.  Coefficient  Atom+Function  
  ----- ------------  ---------------      ----- ------------  ---------------
    96      2.828639  12 H  s                93     -2.427208  11 H  s         
    82     -2.089561   8 C  px               68      1.712155   7 C  py        
    69     -1.422895   7 C  pz               75      1.322010   8 C  s         
    90     -1.283895  10 H  s                14     -1.235956   1 C  py        
    95     -1.199186  12 H  s                74     -1.098394   8 C  s         
 
 Vector   53  Occ=0.000000D+00  E= 4.898770D-01
              MO Center= -5.4D-01, -1.7D-01,  1.3D-01, r^2= 6.6D+00
   Bfn.  Coefficient  Atom+Function         Bfn.  Coefficient  Atom+Function  
  ----- ------------  ---------------      ----- ------------  ---------------
    75      2.815805   8 C  s                 6      2.721266   1 C  s         
    99     -1.841938  13 H  s                33     -1.692542   3 H  s         
    74     -1.634013   8 C  s                93     -1.426108  11 H  s         
    47     -1.356819   4 C  py               54      1.240662   6 H  s         
    60      1.155816   7 C  s                14      1.137934   1 C  py        
 
 Vector   54  Occ=0.000000D+00  E= 5.101967D-01
              MO Center=  9.0D-01, -1.9D-01, -2.8D-01, r^2= 6.7D+00
   Bfn.  Coefficient  Atom+Function         Bfn.  Coefficient  Atom+Function  
  ----- ------------  ---------------      ----- ------------  ---------------
    21      4.009551   2 C  s                29      2.803132   2 C  py        
    51     -2.726936   5 H  s                99     -2.282561  13 H  s         
    13     -1.816094   1 C  px               15      1.791965   1 C  pz        
    47     -1.627624   4 C  py               14     -1.586615   1 C  py        
    68     -1.357498   7 C  py               54      1.316757   6 H  s         
 
 Vector   55  Occ=0.000000D+00  E= 5.215405D-01
              MO Center=  1.1D+00, -2.1D-01, -4.6D-01, r^2= 6.2D+00
   Bfn.  Coefficient  Atom+Function         Bfn.  Coefficient  Atom+Function  
  ----- ------------  ---------------      ----- ------------  ---------------
    54      4.751043   6 H  s                29      4.051724   2 C  py        
    99     -3.178606  13 H  s                14     -2.761736   1 C  py        
    13     -2.436774   1 C  px               47     -2.432457   4 C  py        
    15      2.208737   1 C  pz               39     -2.027608   4 C  s         
    21     -1.905489   2 C  s                33      1.720107   3 H  s         
 
 Vector   56  Occ=0.000000D+00  E= 6.079418D-01
              MO Center=  3.3D-01, -1.5D-01,  9.0D-02, r^2= 5.8D+00
   Bfn.  Coefficient  Atom+Function         Bfn.  Coefficient  Atom+Function  
  ----- ------------  ---------------      ----- ------------  ---------------
     6      4.196630   1 C  s                60     -3.641416   7 C  s         
    46     -3.174537   4 C  px               29     -2.786428   2 C  py        
    84     -2.619955   8 C  pz               21     -2.493843   2 C  s         
    39      2.383358   4 C  s                69      2.037338   7 C  pz        
    51      1.937899   5 H  s                59      1.841662   7 C  s         
 
 Vector   57  Occ=0.000000D+00  E= 6.161596D-01
              MO Center=  6.3D-01,  9.2D-01, -3.2D-01, r^2= 5.3D+00
   Bfn.  Coefficient  Atom+Function         Bfn.  Coefficient  Atom+Function  
  ----- ------------  ---------------      ----- ------------  ---------------
    14      5.280524   1 C  py               29     -4.302750   2 C  py        
     6      3.813796   1 C  s                33     -2.428433   3 H  s         
    75      2.367951   8 C  s                54     -2.099476   6 H  s         
    69     -2.103764   7 C  pz               15     -1.835020   1 C  pz        
    39      1.769671   4 C  s                84      1.773743   8 C  pz        
 
 Vector   58  Occ=0.000000D+00  E= 6.211205D-01
              MO Center=  1.2D-01,  3.3D-01,  2.3D-02, r^2= 7.2D+00
   Bfn.  Coefficient  Atom+Function         Bfn.  Coefficient  Atom+Function  
  ----- ------------  ---------------      ----- ------------  ---------------
    13      7.197995   1 C  px               47      6.552662   4 C  py        
    21     -5.775577   2 C  s                29     -5.265055   2 C  py        
    60      4.767361   7 C  s                15     -4.158742   1 C  pz        
    69      4.023361   7 C  pz               39      3.960699   4 C  s         
     6     -3.897676   1 C  s                82      2.872346   8 C  px        
 
 Vector   59  Occ=0.000000D+00  E= 6.531198D-01
              MO Center=  4.4D-01,  2.2D-01, -2.3D-01, r^2= 6.0D+00
   Bfn.  Coefficient  Atom+Function         Bfn.  Coefficient  Atom+Function  
  ----- ------------  ---------------      ----- ------------  ---------------
    21      5.918792   2 C  s                14      5.856305   1 C  py        
     6     -5.053161   1 C  s                75     -4.857496   8 C  s         
    60      3.661608   7 C  s                39      3.500425   4 C  s         
    33     -3.290472   3 H  s                28     -2.981242   2 C  px        
    29     -2.552417   2 C  py               30      2.150580   2 C  pz        
 
 Vector   60  Occ=0.000000D+00  E= 6.854775D-01
              MO Center= -2.3D-01,  1.5D-01,  2.1D-01, r^2= 5.6D+00
   Bfn.  Coefficient  Atom+Function         Bfn.  Coefficient  Atom+Function  
  ----- ------------  ---------------      ----- ------------  ---------------
    39     10.618014   4 C  s                75     -7.008896   8 C  s         
    21     -4.517324   2 C  s                13      3.562072   1 C  px        
    38     -3.138993   4 C  s                48     -3.108835   4 C  pz        
    28      1.808053   2 C  px               15     -1.633255   1 C  pz        
    82     -1.500058   8 C  px               20      1.436513   2 C  s         
 
 Vector   61  Occ=0.000000D+00  E= 7.276145D-01
              MO Center= -1.6D-02, -7.4D-02,  2.2D-01, r^2= 6.8D+00
   Bfn.  Coefficient  Atom+Function         Bfn.  Coefficient  Atom+Function  
  ----- ------------  ---------------      ----- ------------  ---------------
     6     10.170380   1 C  s                39     -9.894772   4 C  s         
    60      9.706567   7 C  s                21     -7.584250   2 C  s         
    14     -6.489369   1 C  py               75     -3.675263   8 C  s         
    47      3.313737   4 C  py               46     -2.959054   4 C  px        
    33      2.922138   3 H  s                68      2.592043   7 C  py        
 
 Vector   62  Occ=0.000000D+00  E= 1.356048D+00
              MO Center= -5.1D-01, -4.0D-01,  1.5D-01, r^2= 3.5D+00
   Bfn.  Coefficient  Atom+Function         Bfn.  Coefficient  Atom+Function  
  ----- ------------  ---------------      ----- ------------  ---------------
    60      1.658608   7 C  s                65      1.590349   7 C  py        
    14     -1.373184   1 C  py               39     -1.144592   4 C  s         
    79     -1.149854   8 C  px               64     -1.133463   7 C  px        
    44      1.050885   4 C  py                6      1.027673   1 C  s         
    75     -1.002852   8 C  s                80      1.002305   8 C  py        
 
 Vector   63  Occ=0.000000D+00  E= 1.363366D+00
              MO Center= -3.0D-01,  1.3D-01,  1.5D-01, r^2= 3.5D+00
   Bfn.  Coefficient  Atom+Function         Bfn.  Coefficient  Atom+Function  
  ----- ------------  ---------------      ----- ------------  ---------------
    44      1.678588   4 C  py               43      1.613123   4 C  px        
    46     -1.428114   4 C  px               39     -1.421009   4 C  s         
    10      1.236276   1 C  px               47     -1.091831   4 C  py        
    84     -1.062173   8 C  pz               79      1.050885   8 C  px        
    51      1.011216   5 H  s                13     -0.928231   1 C  px        
 
 Vector   64  Occ=0.000000D+00  E= 1.387340D+00
              MO Center=  1.2D+00,  5.3D-01, -4.4D-01, r^2= 3.0D+00
   Bfn.  Coefficient  Atom+Function         Bfn.  Coefficient  Atom+Function  
  ----- ------------  ---------------      ----- ------------  ---------------
    27      1.219912   2 C  pz               24     -0.939488   2 C  pz        
    39      0.912450   4 C  s                25      0.571642   2 C  px        
    81     -0.568447   8 C  pz               45     -0.559824   4 C  pz        
    10      0.531765   1 C  px               30     -0.515966   2 C  pz        
    79     -0.486151   8 C  px               14      0.468594   1 C  py        
 
 Vector   65  Occ=0.000000D+00  E= 1.398960D+00
              MO Center=  2.2D-01,  3.8D-01,  2.4D-02, r^2= 3.4D+00
   Bfn.  Coefficient  Atom+Function         Bfn.  Coefficient  Atom+Function  
  ----- ------------  ---------------      ----- ------------  ---------------
    10      1.512770   1 C  px               87     -1.276481   9 H  s         
    12     -1.218987   1 C  pz               39      1.182175   4 C  s         
    75     -1.165980   8 C  s                45     -1.053238   4 C  pz        
    48      1.053259   4 C  pz               51      0.912857   5 H  s         
    28     -0.905687   2 C  px               25      0.836311   2 C  px        
 
 Vector   66  Occ=0.000000D+00  E= 1.438081D+00
              MO Center=  5.2D-01,  4.3D-01, -1.5D-01, r^2= 3.6D+00
   Bfn.  Coefficient  Atom+Function         Bfn.  Coefficient  Atom+Function  
  ----- ------------  ---------------      ----- ------------  ---------------
    29      1.118594   2 C  py               26     -0.911888   2 C  py        
    54      0.888347   6 H  s                10      0.853110   1 C  px        
    12      0.838595   1 C  pz               27     -0.820686   2 C  pz        
    48     -0.796441   4 C  pz               64     -0.744882   7 C  px        
    11     -0.732722   1 C  py               79     -0.717139   8 C  px        
 
 Vector   67  Occ=0.000000D+00  E= 1.459061D+00
              MO Center= -6.6D-02,  2.0D-01, -2.5D-01, r^2= 4.2D+00
   Bfn.  Coefficient  Atom+Function         Bfn.  Coefficient  Atom+Function  
  ----- ------------  ---------------      ----- ------------  ---------------
    39      2.230482   4 C  s                60     -1.659220   7 C  s         
     6     -1.368649   1 C  s                80     -1.314849   8 C  py        
    25     -1.161010   2 C  px               12      1.138827   1 C  pz        
    15     -0.883069   1 C  pz               46      0.784195   4 C  px        
    21      0.719952   2 C  s                67     -0.720427   7 C  px        
 
 Vector   68  Occ=0.000000D+00  E= 1.473310D+00
              MO Center=  3.8D-01, -2.7D-01,  2.1D-02, r^2= 4.5D+00
   Bfn.  Coefficient  Atom+Function         Bfn.  Coefficient  Atom+Function  
  ----- ------------  ---------------      ----- ------------  ---------------
    39      2.085837   4 C  s                14      1.859452   1 C  py        
    60     -1.588085   7 C  s                21      1.543362   2 C  s         
    25     -1.533341   2 C  px               29     -1.457590   2 C  py        
    65     -1.447072   7 C  py               54     -1.416691   6 H  s         
     6     -1.324394   1 C  s                43      1.053952   4 C  px        
 
 Vector   69  Occ=0.000000D+00  E= 1.508165D+00
              MO Center= -4.3D-01, -2.7D-01, -9.5D-02, r^2= 4.1D+00
   Bfn.  Coefficient  Atom+Function         Bfn.  Coefficient  Atom+Function  
  ----- ------------  ---------------      ----- ------------  ---------------
    79      1.437185   8 C  px               82     -1.376225   8 C  px        
    93     -1.333268  11 H  s                10     -1.106018   1 C  px        
    68      1.101842   7 C  py               60      1.083315   7 C  s         
    99      0.996715  13 H  s                13      0.965903   1 C  px        
    47      0.895376   4 C  py               66     -0.882500   7 C  pz        
 
 Vector   70  Occ=0.000000D+00  E= 1.548986D+00
              MO Center= -3.7D-01, -3.3D-01,  8.6D-02, r^2= 3.9D+00
   Bfn.  Coefficient  Atom+Function         Bfn.  Coefficient  Atom+Function  
  ----- ------------  ---------------      ----- ------------  ---------------
    75      1.875164   8 C  s                47      1.531735   4 C  py        
    82      1.364778   8 C  px               14      1.275638   1 C  py        
    48      1.117763   4 C  pz               39     -1.109385   4 C  s         
    87     -1.017687   9 H  s                25     -0.998225   2 C  px        
    84      0.963107   8 C  pz               33     -0.946981   3 H  s         
 
 Vector   71  Occ=0.000000D+00  E= 1.568748D+00
              MO Center= -5.0D-01, -3.7D-01,  2.8D-01, r^2= 3.3D+00
   Bfn.  Coefficient  Atom+Function         Bfn.  Coefficient  Atom+Function  
  ----- ------------  ---------------      ----- ------------  ---------------
    39      1.299907   4 C  s                68     -1.297195   7 C  py        
    43      1.058895   4 C  px               65      0.956576   7 C  py        
    64     -0.899101   7 C  px               46     -0.865026   4 C  px        
    67      0.852996   7 C  px               99     -0.850303  13 H  s         
    45      0.833616   4 C  pz               79      0.794396   8 C  px        
 
 Vector   72  Occ=0.000000D+00  E= 1.590419D+00
              MO Center=  7.7D-02,  1.3D-01,  1.2D-02, r^2= 4.1D+00
   Bfn.  Coefficient  Atom+Function         Bfn.  Coefficient  Atom+Function  
  ----- ------------  ---------------      ----- ------------  ---------------
    48      1.828090   4 C  pz               84     -1.588510   8 C  pz        
    81      1.403927   8 C  pz               21      1.262623   2 C  s         
    90     -1.185611  10 H  s                93      1.158686  11 H  s         
    82      1.104240   8 C  px               87     -1.107258   9 H  s         
    44      1.057134   4 C  py               45     -1.056016   4 C  pz        
 
 Vector   73  Occ=0.000000D+00  E= 1.658745D+00
              MO Center= -1.7D-01, -6.9D-01,  2.3D-01, r^2= 4.0D+00
   Bfn.  Coefficient  Atom+Function         Bfn.  Coefficient  Atom+Function  
  ----- ------------  ---------------      ----- ------------  ---------------
    69      2.867937   7 C  pz               96     -2.277434  12 H  s         
    99      2.075275  13 H  s                66     -2.060306   7 C  pz        
    29     -1.938769   2 C  py               67     -1.599143   7 C  px        
    54     -1.529980   6 H  s                26      1.297663   2 C  py        
    13      1.279952   1 C  px               84     -1.276036   8 C  pz        
 
 Vector   74  Occ=0.000000D+00  E= 1.677962D+00
              MO Center= -1.7D-01,  3.1D-02,  1.0D-03, r^2= 4.3D+00
   Bfn.  Coefficient  Atom+Function         Bfn.  Coefficient  Atom+Function  
  ----- ------------  ---------------      ----- ------------  ---------------
    29      1.819660   2 C  py               14     -1.542538   1 C  py        
    60     -1.547403   7 C  s                47     -1.506820   4 C  py        
    11      1.493952   1 C  py               54      1.386459   6 H  s         
    79     -1.320466   8 C  px               26     -1.298060   2 C  py        
    15      1.266042   1 C  pz               75     -1.214445   8 C  s         
 
 Vector   75  Occ=0.000000D+00  E= 1.757152D+00
              MO Center= -2.8D-01,  4.1D-01,  3.9D-01, r^2= 3.0D+00
   Bfn.  Coefficient  Atom+Function         Bfn.  Coefficient  Atom+Function  
  ----- ------------  ---------------      ----- ------------  ---------------
    87     -2.119198   9 H  s                48      1.980046   4 C  pz        
    45     -1.561323   4 C  pz               86      1.374967   9 H  s         
    47      1.354285   4 C  py               43      1.210588   4 C  px        
    44     -1.179419   4 C  py               46     -1.142425   4 C  px        
    10     -1.039696   1 C  px               84     -1.034374   8 C  pz        
 
 Vector   76  Occ=0.000000D+00  E= 1.823347D+00
              MO Center=  4.2D-01,  6.5D-01, -4.1D-02, r^2= 3.9D+00
   Bfn.  Coefficient  Atom+Function         Bfn.  Coefficient  Atom+Function  
  ----- ------------  ---------------      ----- ------------  ---------------
    11      1.827146   1 C  py                6     -1.392332   1 C  s         
    51     -1.320126   5 H  s                26     -1.312300   2 C  py        
    32     -1.207408   3 H  s                29      1.064717   2 C  py        
    33      1.020365   3 H  s                50      0.978674   5 H  s         
    14     -0.936811   1 C  py               74     -0.939357   8 C  s         
 
 Vector   77  Occ=0.000000D+00  E= 2.120686D+00
              MO Center=  7.4D-01, -4.0D-01, -2.0D-01, r^2= 5.7D+00
   Bfn.  Coefficient  Atom+Function         Bfn.  Coefficient  Atom+Function  
  ----- ------------  ---------------      ----- ------------  ---------------
    20      1.708371   2 C  s                59      1.451511   7 C  s         
    74     -1.377234   8 C  s                53     -1.285848   6 H  s         
    19     -1.240793   2 C  s                58     -1.176331   7 C  s         
    73      1.010538   8 C  s                50     -0.926064   5 H  s         
    95     -0.922921  12 H  s                54      0.876765   6 H  s         
 
 Vector   78  Occ=0.000000D+00  E= 2.162338D+00
              MO Center= -1.2D+00, -3.0D-01, -5.7D-01, r^2= 4.3D+00
   Bfn.  Coefficient  Atom+Function         Bfn.  Coefficient  Atom+Function  
  ----- ------------  ---------------      ----- ------------  ---------------
    74      2.065032   8 C  s                73     -1.630392   8 C  s         
    89     -1.455264  10 H  s                92     -1.333362  11 H  s         
    38     -1.011110   4 C  s                90      0.945120  10 H  s         
    88      0.889890  10 H  s                91      0.762835  11 H  s         
    14      0.732493   1 C  py               20      0.735192   2 C  s         
 
 Vector   79  Occ=0.000000D+00  E= 2.200411D+00
              MO Center=  2.5D-01, -7.9D-01,  2.6D-01, r^2= 4.7D+00
   Bfn.  Coefficient  Atom+Function         Bfn.  Coefficient  Atom+Function  
  ----- ------------  ---------------      ----- ------------  ---------------
    59      2.097289   7 C  s                38     -1.721249   4 C  s         
    58     -1.581836   7 C  s                54     -1.480876   6 H  s         
    99      1.456913  13 H  s                20     -1.392373   2 C  s         
    98     -1.286896  13 H  s                 5      1.255229   1 C  s         
    95     -1.197816  12 H  s                37      1.180403   4 C  s         
 
 Vector   80  Occ=0.000000D+00  E= 2.289699D+00
              MO Center=  5.7D-01,  1.3D+00, -3.4D-01, r^2= 4.5D+00
   Bfn.  Coefficient  Atom+Function         Bfn.  Coefficient  Atom+Function  
  ----- ------------  ---------------      ----- ------------  ---------------
     5      1.620185   1 C  s                32     -1.532423   3 H  s         
    14      1.366547   1 C  py                4     -1.291843   1 C  s         
     6     -1.220186   1 C  s                47     -1.205924   4 C  py        
    13     -1.120652   1 C  px               50     -1.125815   5 H  s         
    21      1.086574   2 C  s                31      1.008019   3 H  s         
 
 Vector   81  Occ=0.000000D+00  E= 2.303972D+00
              MO Center= -4.8D-01, -2.0D-02,  3.9D-01, r^2= 4.0D+00
   Bfn.  Coefficient  Atom+Function         Bfn.  Coefficient  Atom+Function  
  ----- ------------  ---------------      ----- ------------  ---------------
    86      1.386796   9 H  s                29      1.102060   2 C  py        
    48     -1.066994   4 C  pz               20      1.055417   2 C  s         
    38     -1.026243   4 C  s                85     -1.023606   9 H  s         
    19     -0.909107   2 C  s                37      0.910346   4 C  s         
    14     -0.838848   1 C  py               75     -0.825988   8 C  s         
 
 Vector   82  Occ=0.000000D+00  E= 2.320609D+00
              MO Center= -6.2D-01, -3.6D-01,  2.6D-01, r^2= 5.8D+00
   Bfn.  Coefficient  Atom+Function         Bfn.  Coefficient  Atom+Function  
  ----- ------------  ---------------      ----- ------------  ---------------
    86      1.070098   9 H  s                92      0.977193  11 H  s         
    95      0.974808  12 H  s                89     -0.919574  10 H  s         
    75     -0.892631   8 C  s                48     -0.870650   4 C  pz        
    47     -0.827414   4 C  py               74      0.759606   8 C  s         
    60     -0.750122   7 C  s                85     -0.734114   9 H  s         
 
 Vector   83  Occ=0.000000D+00  E= 2.416000D+00
              MO Center= -1.3D-01, -5.9D-01, -9.0D-02, r^2= 4.8D+00
   Bfn.  Coefficient  Atom+Function         Bfn.  Coefficient  Atom+Function  
  ----- ------------  ---------------      ----- ------------  ---------------
    20      2.149448   2 C  s                84      1.687201   8 C  pz        
    19     -1.677514   2 C  s                 5      1.569291   1 C  s         
    69     -1.547188   7 C  pz               98     -1.284751  13 H  s         
     4     -1.272719   1 C  s                21     -1.230427   2 C  s         
    46      1.092940   4 C  px               82     -1.086143   8 C  px        
 
 Vector   84  Occ=0.000000D+00  E= 2.459891D+00
              MO Center=  1.2D+00,  6.2D-01, -4.9D-01, r^2= 4.3D+00
   Bfn.  Coefficient  Atom+Function         Bfn.  Coefficient  Atom+Function  
  ----- ------------  ---------------      ----- ------------  ---------------
    14      3.507563   1 C  py               29     -3.258675   2 C  py        
    33     -1.408702   3 H  s                51      1.382164   5 H  s         
    53     -1.351736   6 H  s                75      1.199313   8 C  s         
    50      1.190280   5 H  s                38      1.115657   4 C  s         
    15     -1.107940   1 C  pz               30      1.100218   2 C  pz        
 
 Vector   85  Occ=0.000000D+00  E= 2.573528D+00
              MO Center= -7.8D-01, -6.6D-01,  1.1D-01, r^2= 2.5D+00
   Bfn.  Coefficient  Atom+Function         Bfn.  Coefficient  Atom+Function  
  ----- ------------  ---------------      ----- ------------  ---------------
    74      3.129406   8 C  s                59      2.552336   7 C  s         
    73     -2.538847   8 C  s                58     -2.154313   7 C  s         
    75     -2.073726   8 C  s                38      1.413610   4 C  s         
    14     -1.339295   1 C  py               21     -1.330154   2 C  s         
    37     -1.194146   4 C  s                84     -1.134778   8 C  pz        
 
 Vector   86  Occ=0.000000D+00  E= 2.611653D+00
              MO Center=  1.5D-01,  4.5D-01,  1.3D-01, r^2= 4.2D+00
   Bfn.  Coefficient  Atom+Function         Bfn.  Coefficient  Atom+Function  
  ----- ------------  ---------------      ----- ------------  ---------------
     6      4.389456   1 C  s                 5     -3.949703   1 C  s         
    60     -3.050609   7 C  s                47     -3.013552   4 C  py        
     4      2.852021   1 C  s                13     -2.370897   1 C  px        
    69     -2.033936   7 C  pz               59      2.000107   7 C  s         
    21      1.952630   2 C  s                20     -1.463376   2 C  s         
 
 Vector   87  Occ=0.000000D+00  E= 2.660976D+00
              MO Center=  6.4D-01,  4.8D-01, -1.4D-01, r^2= 4.0D+00
   Bfn.  Coefficient  Atom+Function         Bfn.  Coefficient  Atom+Function  
  ----- ------------  ---------------      ----- ------------  ---------------
    21      5.110939   2 C  s                39     -4.748534   4 C  s         
    20     -3.666316   2 C  s                38      3.137234   4 C  s         
    13     -2.825749   1 C  px               19      2.486585   2 C  s         
    37     -2.123626   4 C  s                60      1.881312   7 C  s         
     6     -1.753375   1 C  s                 5      1.668434   1 C  s         
 
 Vector   88  Occ=0.000000D+00  E= 2.710346D+00
              MO Center= -3.7D-01, -4.2D-02,  1.0D-01, r^2= 3.4D+00
   Bfn.  Coefficient  Atom+Function         Bfn.  Coefficient  Atom+Function  
  ----- ------------  ---------------      ----- ------------  ---------------
    39      6.916089   4 C  s                75     -4.558343   8 C  s         
    38     -4.401927   4 C  s                 6     -3.233942   1 C  s         
    37      2.916220   4 C  s                74      2.789302   8 C  s         
    14      2.737580   1 C  py               21      2.438312   2 C  s         
    73     -1.869608   8 C  s                 5      1.736449   1 C  s         
 
 Vector   89  Occ=0.000000D+00  E= 2.735132D+00
              MO Center= -1.4D-01, -5.3D-01,  1.5D-01, r^2= 4.3D+00
   Bfn.  Coefficient  Atom+Function         Bfn.  Coefficient  Atom+Function  
  ----- ------------  ---------------      ----- ------------  ---------------
    60      6.602667   7 C  s                 6      4.925745   1 C  s         
    21     -4.612206   2 C  s                75     -3.925190   8 C  s         
    59     -3.792661   7 C  s                 5     -2.865109   1 C  s         
    39     -2.617027   4 C  s                58      2.537131   7 C  s         
    74      2.387021   8 C  s                20      2.072013   2 C  s         
 
 Vector   90  Occ=0.000000D+00  E= 1.149344D+01
              MO Center=  1.2D+00,  7.8D-01, -4.0D-01, r^2= 1.0D+00
   Bfn.  Coefficient  Atom+Function         Bfn.  Coefficient  Atom+Function  
  ----- ------------  ---------------      ----- ------------  ---------------
    19     -2.438162   2 C  s                18      2.419523   2 C  s         
     4     -2.161419   1 C  s                 3      2.096869   1 C  s         
    20      2.016568   2 C  s                 5      1.836596   1 C  s         
     6     -1.320357   1 C  s                17     -1.276821   2 C  s         
    21     -1.277662   2 C  s                 2     -1.102087   1 C  s         
 
 Vector   91  Occ=0.000000D+00  E= 1.166864D+01
              MO Center= -1.4D+00, -3.9D-01, -1.4D-01, r^2= 6.4D-01
   Bfn.  Coefficient  Atom+Function         Bfn.  Coefficient  Atom+Function  
  ----- ------------  ---------------      ----- ------------  ---------------
    73     -3.186794   8 C  s                72      3.074032   8 C  s         
    74      2.830553   8 C  s                75     -2.283446   8 C  s         
    71     -1.609239   8 C  s                37      1.157039   4 C  s         
    38     -1.132693   4 C  s                39      1.091213   4 C  s         
    36     -1.078015   4 C  s                35      0.565367   4 C  s         
 
 Vector   92  Occ=0.000000D+00  E= 1.167792D+01
              MO Center= -4.3D-01, -1.1D+00,  4.4D-01, r^2= 7.1D-01
   Bfn.  Coefficient  Atom+Function         Bfn.  Coefficient  Atom+Function  
  ----- ------------  ---------------      ----- ------------  ---------------
    58     -3.207792   7 C  s                57      3.084032   7 C  s         
    59      2.880563   7 C  s                60     -2.463475   7 C  s         
    56     -1.614274   7 C  s                39      0.999720   4 C  s         
    37      0.903031   4 C  s                38     -0.892528   4 C  s         
    36     -0.847939   4 C  s                75      0.730059   8 C  s         
 
 Vector   93  Occ=0.000000D+00  E= 1.176295D+01
              MO Center= -4.1D-01,  4.3D-02,  4.7D-01, r^2= 9.4D-01
   Bfn.  Coefficient  Atom+Function         Bfn.  Coefficient  Atom+Function  
  ----- ------------  ---------------      ----- ------------  ---------------
    37     -3.143596   4 C  s                36      2.958135   4 C  s         
    38      2.898839   4 C  s                39     -2.787789   4 C  s         
    35     -1.535340   4 C  s                58     -1.072027   7 C  s         
    57      1.045243   7 C  s                72      0.925675   8 C  s         
    73     -0.928799   8 C  s                59      0.835161   7 C  s         
 
 Vector   94  Occ=0.000000D+00  E= 1.185361D+01
              MO Center=  1.0D+00,  8.4D-01, -3.1D-01, r^2= 9.2D-01
   Bfn.  Coefficient  Atom+Function         Bfn.  Coefficient  Atom+Function  
  ----- ------------  ---------------      ----- ------------  ---------------
     4     -2.679773   1 C  s                 6     -2.672831   1 C  s         
     5      2.594510   1 C  s                 3      2.506836   1 C  s         
    21      2.333501   2 C  s                19      2.201775   2 C  s         
    20     -2.121457   2 C  s                18     -2.090376   2 C  s         
     2     -1.301882   1 C  s                17      1.088514   2 C  s         
 
 Vector   95  Occ=0.000000D+00  E= 6.244711D+01
              MO Center=  1.2D+00,  7.7D-01, -4.0D-01, r^2= 7.8D-01
   Bfn.  Coefficient  Atom+Function         Bfn.  Coefficient  Atom+Function  
  ----- ------------  ---------------      ----- ------------  ---------------
    17      2.180502   2 C  s                 2      1.867899   1 C  s         
    18     -1.646240   2 C  s                 3     -1.414865   1 C  s         
    16     -1.294951   2 C  s                 1     -1.108424   1 C  s         
    19      1.075403   2 C  s                 4      0.944042   1 C  s         
    20     -0.843705   2 C  s                 5     -0.759595   1 C  s         
 
 Vector   96  Occ=0.000000D+00  E= 6.261603D+01
              MO Center= -1.3D+00, -4.4D-01, -1.0D-01, r^2= 5.1D-01
   Bfn.  Coefficient  Atom+Function         Bfn.  Coefficient  Atom+Function  
  ----- ------------  ---------------      ----- ------------  ---------------
    71      2.673335   8 C  s                72     -2.039515   8 C  s         
    70     -1.579833   8 C  s                73      1.372674   8 C  s         
    74     -1.147978   8 C  s                35     -0.896026   4 C  s         
    75      0.892393   8 C  s                56      0.779708   7 C  s         
    36      0.681588   4 C  s                57     -0.596671   7 C  s         
 
 Vector   97  Occ=0.000000D+00  E= 6.262669D+01
              MO Center= -5.1D-01, -1.1D+00,  3.7D-01, r^2= 5.5D-01
   Bfn.  Coefficient  Atom+Function         Bfn.  Coefficient  Atom+Function  
  ----- ------------  ---------------      ----- ------------  ---------------
    56      2.697006   7 C  s                57     -2.057287   7 C  s         
    55     -1.593678   7 C  s                58      1.392406   7 C  s         
    59     -1.191305   7 C  s                60      1.031293   7 C  s         
    71     -0.985473   8 C  s                72      0.750004   8 C  s         
    70      0.582598   8 C  s                73     -0.513696   8 C  s         
 
 Vector   98  Occ=0.000000D+00  E= 6.270285D+01
              MO Center= -3.5D-01,  9.7D-02,  4.8D-01, r^2= 6.3D-01
   Bfn.  Coefficient  Atom+Function         Bfn.  Coefficient  Atom+Function  
  ----- ------------  ---------------      ----- ------------  ---------------
    35      2.701269   4 C  s                36     -2.077209   4 C  s         
    34     -1.591589   4 C  s                37      1.437151   4 C  s         
    38     -1.262026   4 C  s                39      1.218361   4 C  s         
    56      0.804727   7 C  s                71      0.643539   8 C  s         
    17     -0.634975   2 C  s                57     -0.621391   7 C  s         
 
 Vector   99  Occ=0.000000D+00  E= 6.280286D+01
              MO Center=  1.0D+00,  8.3D-01, -2.9D-01, r^2= 7.1D-01
   Bfn.  Coefficient  Atom+Function         Bfn.  Coefficient  Atom+Function  
  ----- ------------  ---------------      ----- ------------  ---------------
     2      2.234714   1 C  s                17     -1.846870   2 C  s         
     3     -1.721863   1 C  s                18      1.419930   2 C  s         
     1     -1.314356   1 C  s                 4      1.201385   1 C  s         
     6      1.152507   1 C  s                 5     -1.106383   1 C  s         
    16      1.086882   2 C  s                21     -0.989254   2 C  s         
 

 center of mass
 --------------
 x =   0.00610174 y =   0.02361147 z =   0.00984547

 moments of inertia (a.u.)
 ------------------
         272.245300827398        -144.610189972958          73.925406219848
        -144.610189972958         405.479601358494          46.799854375204
          73.925406219848          46.799854375204         530.754736547355
 
     Multipole analysis of the density
     ---------------------------------
 
     L   x y z        total         alpha         beta         nuclear
     -   - - -        -----         -----         ----         -------
     0   0 0 0     -0.000000    -19.000000    -19.000000     38.000000
 
     1   1 0 0     -0.174986     -0.087493     -0.087493     -0.000000
     1   0 1 0     -0.010307     -0.005153     -0.005153     -0.000000
     1   0 0 1      0.070751      0.035375      0.035375      0.000000
 
     2   2 0 0    -23.839456   -112.526558   -112.526558    201.213659
     2   1 1 0     -0.364671    -40.934671    -40.934671     81.504672
     2   1 0 1     -1.487958     22.074779     22.074779    -45.637516
     2   0 2 0    -23.441818    -73.702092    -73.702092    123.962366
     2   0 1 1     -0.262231     13.728169     13.728169    -27.718569
     2   0 0 2    -24.048423    -37.284564    -37.284564     50.520705
 

 Task  times  cpu:        3.3s     wall:        3.5s
 
 
                                NWChem Input Module
                                -------------------
 
 
 Summary of allocated global arrays
-----------------------------------
  No active global arrays



                         GA Statistics for process    0
                         ------------------------------

       create   destroy   get      put      acc     scatter   gather  read&inc
calls:  168      168     2.16e+04 1706     1.78e+04    0        0      522     
number of processes/call 8.98e+00 3.39e+01 6.75e+00 0.00e+00 0.00e+00
bytes total:             3.22e+07 3.26e+06 1.85e+07 0.00e+00 0.00e+00 4.18e+03
bytes remote:            2.78e+07 2.14e+06 1.63e+07 0.00e+00 0.00e+00 0.00e+00
Max memory consumed for GA by this process: 306656 bytes
 
 
 
                                     CITATION
                                     --------
                Please cite the following reference when publishing
                           results obtained with NWChem:
 
          E. Apr, E. J. Bylaska, W. A. de Jong, N. Govind, K. Kowalski,
       T. P. Straatsma, M. Valiev, H. J. J. van Dam, Y. Alexeev, J. Anchell,
       V. Anisimov, F. W. Aquino, R. Atta-Fynn, J. Autschbach, N. P. Bauman,
     J. C. Becca, D. E. Bernholdt, K. Bhaskaran-Nair, S. Bogatko, P. Borowski,
        J. Boschen, J. Brabec, A. Bruner, E. Caut, Y. Chen, G. N. Chuev,
      C. J. Cramer, J. Daily, M. J. O. Deegan, T. H. Dunning Jr., M. Dupuis,
   K. G. Dyall, G. I. Fann, S. A. Fischer, A. Fonari, H. Frchtl, L. Gagliardi,
      J. Garza, N. Gawande, S. Ghosh, K. Glaesemann, A. W. Gtz, J. Hammond,
       V. Helms, E. D. Hermes, K. Hirao, S. Hirata, M. Jacquelin, L. Jensen,
   B. G. Johnson, H. Jnsson, R. A. Kendall, M. Klemm, R. Kobayashi, V. Konkov,
      S. Krishnamoorthy, M. Krishnan, Z. Lin, R. D. Lins, R. J. Littlefield,
      A. J. Logsdail, K. Lopata, W. Ma, A. V. Marenich, J. Martin del Campo,
   D. Mejia-Rodriguez, J. E. Moore, J. M. Mullin, T. Nakajima, D. R. Nascimento,
    J. A. Nichols, P. J. Nichols, J. Nieplocha, A. Otero-de-la-Roza, B. Palmer,
    A. Panyala, T. Pirojsirikul, B. Peng, R. Peverati, J. Pittner, L. Pollack,
   R. M. Richard, P. Sadayappan, G. C. Schatz, W. A. Shelton, D. W. Silverstein,
   D. M. A. Smith, T. A. Soares, D. Song, M. Swart, H. L. Taylor, G. S. Thomas,
            V. Tipparaju, D. G. Truhlar, K. Tsemekhman, T. Van Voorhis,
     . Vzquez-Mayagoitia, P. Verma, O. Villa, A. Vishnu, K. D. Vogiatzis,
        D. Wang, J. H. Weare, M. J. Williamson, T. L. Windus, K. Woliski,
        A. T. Wong, Q. Wu, C. Yang, Q. Yu, M. Zacharias, Z. Zhang, Y. Zhao,
                                and R. J. Harrison
                        "NWChem: Past, present, and future
                         J. Chem. Phys. 152, 184102 (2020)
                               doi:10.1063/5.0004997
 
                                      AUTHORS
                                      -------
     E. Apra, E. J. Bylaska, N. Govind, K. Kowalski, M. Valiev, W. A. de Jong,
      T. P. Straatsma, H. J. J. van Dam, D. Wang, T. L. Windus, N. P. Bauman,
       A. Panyala, J. Hammond, J. Autschbach, K. Bhaskaran-Nair, J. Brabec,
    K. Lopata, S. A. Fischer, S. Krishnamoorthy, M. Jacquelin, W. Ma, M. Klemm,
       O. Villa, Y. Chen, V. Anisimov, F. Aquino, S. Hirata, M. T. Hackler,
           Eric Hermes, L. Jensen, J. E. Moore, J. C. Becca, V. Konjkov,
            D. Mejia-Rodriguez, T. Risthaus, M. Malagoli, A. Marenich,
   A. Otero-de-la-Roza, J. Mullin, P. Nichols, R. Peverati, J. Pittner, Y. Zhao,
        P.-D. Fan, A. Fonari, M. J. Williamson, R. J. Harrison, J. R. Rehr,
      M. Dupuis, D. Silverstein, D. M. A. Smith, J. Nieplocha, V. Tipparaju,
      M. Krishnan, B. E. Van Kuiken, A. Vazquez-Mayagoitia, M. Swart, Q. Wu,
   T. Van Voorhis, A. A. Auer, M. Nooijen, L. D. Crosby, E. Brown, G. Cisneros,
     G. I. Fann, H. Fruchtl, J. Garza, K. Hirao, R. A. Kendall, J. A. Nichols,
       K. Tsemekhman, K. Wolinski, J. Anchell, D. E. Bernholdt, P. Borowski,
       T. Clark, D. Clerc, H. Dachsel, M. J. O. Deegan, K. Dyall, D. Elwood,
      E. Glendening, M. Gutowski, A. C. Hess, J. Jaffe, B. G. Johnson, J. Ju,
        R. Kobayashi, R. Kutteh, Z. Lin, R. Littlefield, X. Long, B. Meng,
      T. Nakajima, S. Niu, L. Pollack, M. Rosing, K. Glaesemann, G. Sandrone,
      M. Stave, H. Taylor, G. Thomas, J. H. van Lenthe, A. T. Wong, Z. Zhang.

 Total times  cpu:        3.3s     wall:        3.6s
