 
             Northwest Computational Chemistry Package (NWChem) 7.0.0
             --------------------------------------------------------
 
 
                    Environmental Molecular Sciences Laboratory
                       Pacific Northwest National Laboratory
                                Richland, WA 99352
 
                              Copyright (c) 1994-2020
                       Pacific Northwest National Laboratory
                            Battelle Memorial Institute
 
             NWChem is an open-source computational chemistry package
                        distributed under the terms of the
                      Educational Community License (ECL) 2.0
             A copy of the license is included with this distribution
                              in the LICENSE.TXT file
 
                                  ACKNOWLEDGMENT
                                  --------------

            This software and its documentation were developed at the
            EMSL at Pacific Northwest National Laboratory, a multiprogram
            national laboratory, operated for the U.S. Department of Energy
            by Battelle under Contract Number DE-AC05-76RL01830. Support
            for this work was provided by the Department of Energy Office
            of Biological and Environmental Research, Office of Basic
            Energy Sciences, and the Office of Advanced Scientific Computing.


                                NWChem Input Module
                                -------------------
 
 
 Summary of "ao basis" -> "" (spherical)
 ------------------------------------------------------------------------------
       Tag                 Description            Shells   Functions and Types
 ---------------- ------------------------------  ------  ---------------------
 *                        ahlrichs_vtz                on all atoms 



 Scaling coordinates for geometry "geometry" by  1.889725989
 (inverse scale =  0.529177249)

 
 
                             Geometry "geometry" -> ""
                             -------------------------
 
 Output coordinates in angstroms (scale by  1.889725989 to convert to a.u.)
 
  No.       Tag          Charge          X              Y              Z
 ---- ---------------- ---------- -------------- -------------- --------------
    1 C                    6.0000    -0.16967935     0.94344181     0.03403180
    2 C                    6.0000     1.16164306     1.05970556    -0.09819161
    3 H                    1.0000    -0.83958308     1.79849712     0.11701081
    4 O                    8.0000    -0.92465444    -0.22484646     0.08919552
    5 H                    1.0000     1.60669851     2.05252133    -0.12509637
    6 H                    1.0000     1.83895105     0.21163313    -0.18190575
    7 C                    6.0000    -0.18462767    -1.48112696    -0.00789798
    8 H                    1.0000    -0.93870849    -2.27058730     0.05443876
    9 H                    1.0000     0.53346294    -1.57853432     0.82197953
   10 H                    1.0000     0.35239834    -1.54688081    -0.96764432
 
      Atomic Mass 
      ----------- 
 
      C                 12.000000
      H                  1.007825
      O                 15.994910
 

 Effective nuclear repulsion energy (a.u.)     119.5911710318

            Nuclear Dipole moment (a.u.) 
            ----------------------------
        X                 Y               Z
 ---------------- ---------------- ----------------
     0.0000000000     0.0000000000     0.0000000000
 
 
            XYZ format geometry
            -------------------
    10
 geometry
 C                    -0.16967935     0.94344181     0.03403180
 C                     1.16164306     1.05970556    -0.09819161
 H                    -0.83958308     1.79849712     0.11701081
 O                    -0.92465444    -0.22484646     0.08919552
 H                     1.60669851     2.05252133    -0.12509637
 H                     1.83895105     0.21163313    -0.18190575
 C                    -0.18462767    -1.48112696    -0.00789798
 H                    -0.93870849    -2.27058730     0.05443876
 H                     0.53346294    -1.57853432     0.82197953
 H                     0.35239834    -1.54688081    -0.96764432
 
 ==============================================================================
                                internuclear distances
 ------------------------------------------------------------------------------
       center one      |      center two      | atomic units |  angstroms
 ------------------------------------------------------------------------------
    2 C                |   1 C                |     2.53774  |     1.34291
    3 H                |   1 C                |     2.05865  |     1.08939
    4 O                |   1 C                |     2.63068  |     1.39209
    5 H                |   2 C                |     2.05666  |     1.08834
    6 H                |   2 C                |     2.05710  |     1.08857
    7 C                |   4 O                |     2.76140  |     1.46127
    8 H                |   7 C                |     2.06644  |     1.09351
    9 H                |   7 C                |     2.08199  |     1.10174
   10 H                |   7 C                |     2.08199  |     1.10174
 ------------------------------------------------------------------------------
                         number of included internuclear distances:          9
 ==============================================================================



 ==============================================================================
                                 internuclear angles
 ------------------------------------------------------------------------------
        center 1       |       center 2       |       center 3       |  degrees
 ------------------------------------------------------------------------------
    2 C                |   1 C                |   3 H                |   123.31
    2 C                |   1 C                |   4 O                |   127.89
    3 H                |   1 C                |   4 O                |   108.80
    1 C                |   2 C                |   5 H                |   119.13
    1 C                |   2 C                |   6 H                |   123.85
    5 H                |   2 C                |   6 H                |   117.02
    1 C                |   4 O                |   7 C                |   116.37
    4 O                |   7 C                |   8 H                |   105.52
    4 O                |   7 C                |   9 H                |   110.86
    4 O                |   7 C                |  10 H                |   110.86
    8 H                |   7 C                |   9 H                |   110.04
    8 H                |   7 C                |  10 H                |   110.04
    9 H                |   7 C                |  10 H                |   109.46
 ------------------------------------------------------------------------------
                            number of included internuclear angles:         13
 ==============================================================================



                              Aldehyde and Ketone set
                              -----------------------
 
                                 NWChem DFT Module
                                 -----------------
 
 
                              Aldehyde and Ketone set
 
 
                      Basis "ao basis" -> "ao basis" (spherical)
                      -----
  C (Carbon)
  ----------
            Exponent  Coefficients 
       -------------- ---------------------------------------------------------
  1 S  8.50603840E+03  0.000534
  1 S  1.27573290E+03  0.004125
  1 S  2.90311870E+02  0.021171
  1 S  8.20562000E+01  0.082418
  1 S  2.64796410E+01  0.240129
 
  2 S  9.24145850E+00  1.000000
 
  3 S  3.36435300E+00  1.000000
 
  4 S  8.71741640E-01  1.000000
 
  5 S  3.63523520E-01  1.000000
 
  6 S  1.28731350E-01  1.000000
 
  7 P  3.47094960E+01  0.005330
  7 P  7.95908830E+00  0.035866
  7 P  2.37869720E+00  0.142003
  7 P  8.15400650E-01  0.342031
 
  8 P  2.89537850E-01  1.000000
 
  9 P  1.00847540E-01  1.000000
 
  H (Hydrogen)
  ------------
            Exponent  Coefficients 
       -------------- ---------------------------------------------------------
  1 S  3.40613410E+01  0.006025
  1 S  5.12357460E+00  0.045021
  1 S  1.16466260E+00  0.201897
 
  2 S  3.27230410E-01  1.000000
 
  3 S  1.03072410E-01  1.000000
 
  O (Oxygen)
  ----------
            Exponent  Coefficients 
       -------------- ---------------------------------------------------------
  1 S  1.59026475E+04  0.000515
  1 S  2.38495378E+03  0.003982
  1 S  5.42719572E+02  0.020477
  1 S  1.53404079E+02  0.080262
  1 S  4.95457161E+01  0.237668
 
  2 S  1.73396499E+01  1.000000
 
  3 S  6.33033553E+00  1.000000
 
  4 S  1.69958822E+00  1.000000
 
  5 S  6.89544913E-01  1.000000
 
  6 S  2.39360282E-01  1.000000
 
  7 P  6.32705240E+01  0.006071
  7 P  1.46233123E+01  0.041948
  7 P  4.44895180E+00  0.161569
  7 P  1.52815132E+00  0.356828
 
  8 P  5.29973159E-01  1.000000
 
  9 P  1.75094460E-01  1.000000
 


 Summary of "ao basis" -> "ao basis" (spherical)
 ------------------------------------------------------------------------------
       Tag                 Description            Shells   Functions and Types
 ---------------- ------------------------------  ------  ---------------------
 C                        ahlrichs vtz               9       15   6s3p
 H                        ahlrichs vtz               3        3   3s
 O                        ahlrichs vtz               9       15   6s3p




 Summary of "ao basis" -> "ao basis" (spherical)
 ------------------------------------------------------------------------------
       Tag                 Description            Shells   Functions and Types
 ---------------- ------------------------------  ------  ---------------------
 C                        ahlrichs vtz               9       15   6s3p
 H                        ahlrichs vtz               3        3   3s
 O                        ahlrichs vtz               9       15   6s3p


  Caching 1-el integrals 
 
            General Information
            -------------------
          SCF calculation type: DFT
          Wavefunction type:  closed shell.
          No. of atoms     :    10
          No. of electrons :    32
           Alpha electrons :    16
            Beta electrons :    16
          Charge           :     0
          Spin multiplicity:     1
          Use of symmetry is: off; symmetry adaption is: off
          Maximum number of iterations: 999
          This is a Direct SCF calculation.
          AO basis - number of functions:    78
                     number of shells:    54
          Convergence on energy requested:  1.00D-08
          Convergence on density requested:  1.00D-07
          Convergence on gradient requested:  1.00D-06
 
              XC Information
              --------------
                        PBE96 Method XC Functional
          PerdewBurkeErnzerhof Exchange Functional  1.000          
            Perdew 1991 LDA Correlation Functional  1.000 local    
           PerdewBurkeErnz. Correlation Functional  1.000 non-local
 
             Grid Information
             ----------------
          Grid used for XC integration:  fine      
          Radial quadrature: Mura-Knowles        
          Angular quadrature: Lebedev. 
          Tag              B.-S. Rad. Rad. Pts. Rad. Cut. Ang. Pts.
          ---              ---------- --------- --------- ---------
          C                   0.70       70          11.0       590
          H                   0.35       60          13.0       590
          O                   0.60       70          10.0       590
          Grid pruning is: on 
          Number of quadrature shells:   640
          Spatial weights used:  Erf1
 
          Convergence Information
          -----------------------
          Convergence aids based upon iterative change in 
          total energy or number of iterations. 
          Levelshifting, if invoked, occurs when the 
          HOMO/LUMO gap drops below (HL_TOL):  1.00D-02
          DIIS, if invoked, will attempt to extrapolate 
          using up to (NFOCK): 10 stored Fock matrices.

                    Damping( 0%)  Levelshifting(0.5)       DIIS
                  --------------- ------------------- ---------------
          dE  on:    start            ASAP                start   
          dE off:    2 iters        999 iters           999 iters 

 
      Screening Tolerance Information
      -------------------------------
          Density screening/tol_rho:  1.00D-12
          AO Gaussian exp screening on grid/accAOfunc:  18
          CD Gaussian exp screening on grid/accCDfunc:  20
          XC Gaussian exp screening on grid/accXCfunc:  20
          Schwarz screening/accCoul:  1.00D-12

      Dispersion Parameters
      ---------------------

           DFT-D3BJ Model   
          s6 scale factor  :        1.000000000000
          s8 scale factor  :        0.787500000000
          a1 parameter     :        0.428900000000
          a2 parameter     :        4.440700000000
              vdW contrib  :       -0.005835191569


 Forcing the number of linearly dependent vectors to be  0
 
      Superposition of Atomic Density Guess
      -------------------------------------
 
 Sum of atomic energies:        -190.79620209
   Time after variat. SCF:      0.2
   Time prior to 1st pass:      0.2

 Grid_pts file          = ./22_MeOCHCH2.gridpts.00
 Record size in doubles =  12289        No. of grid_pts per rec  =   3070
 Max. records in memory =     11        Max. recs in file   =  67550051

 Grid integrated density:      31.999996333900
 Requested integration accuracy:   0.10E-06

           Memory utilization after 1st SCF pass: 
           Heap Space remaining (MW):        0.00                 343
          Stack Space remaining (MW):      288.36           288357684

   convergence    iter        energy       DeltaE   RMS-Dens  Diis-err    time
 ---------------- ----- ----------------- --------- --------- ---------  ------
 d= 0,ls=0.0,diis     1   -193.3159643322 -3.13D+02  3.08D-02  4.10D+01     0.3
 d= 0,ls=0.0,diis     2   -192.7666389974  5.49D-01  1.80D-02  9.59D-01     0.5
 d= 0,ls=0.0,diis     3   -192.6551722854  1.11D-01  1.16D-02  1.65D+00     0.6
 d= 0,ls=0.0,diis     4   -192.8782163425 -2.23D-01  2.95D-03  9.04D-02     0.8
 d= 0,ls=0.0,diis     5   -192.8893464448 -1.11D-02  1.12D-03  1.44D-02     0.9
 d= 0,ls=0.0,diis     6   -192.8907103534 -1.36D-03  3.58D-04  4.07D-03     1.1
 d= 0,ls=0.0,diis     7   -192.8910930120 -3.83D-04  5.89D-05  2.65D-05     1.2
 d= 0,ls=0.0,diis     8   -192.8910966555 -3.64D-06  1.38D-05  7.56D-07     1.4
 d= 0,ls=0.0,diis     9   -192.8910967573 -1.02D-07  4.00D-06  2.33D-07     1.5
 d= 0,ls=0.0,diis    10   -192.8910967864 -2.91D-08  1.20D-06  1.11D-08     1.7
 d= 0,ls=0.0,diis    11   -192.8910967881 -1.66D-09  1.85D-07  2.36D-10     1.8
 d= 0,ls=0.0,diis    12   -192.8910967881 -3.26D-11  1.55D-08  1.39D-12     2.0


         Total DFT energy =     -192.891096788140
      One electron energy =     -497.392973171808
           Coulomb energy =      211.670507958408
          Exchange energy =      -25.720432411230
       Correlation energy =       -1.033535003723
 Nuclear repulsion energy =      119.591171031781

    Dispersion correction =       -0.005835191569

 Numeric. integr. density =       32.000001409128

     Total iterative time =      1.8s


 
                       DFT Final Molecular Orbital Analysis
                       ------------------------------------
 
 Vector    1  Occ=2.000000D+00  E=-1.879373D+01
              MO Center= -9.2D-01, -2.2D-01,  8.9D-02, r^2= 1.5D-02
   Bfn.  Coefficient  Atom+Function         Bfn.  Coefficient  Atom+Function  
  ----- ------------  ---------------      ----- ------------  ---------------
    35      0.424669   4 O  s                36      0.366209   4 O  s         
    34      0.299532   4 O  s                37      0.055261   4 O  s         
 
 Vector    2  Occ=2.000000D+00  E=-9.948979D+00
              MO Center= -1.7D-01,  9.4D-01,  3.4D-02, r^2= 2.8D-02
   Bfn.  Coefficient  Atom+Function         Bfn.  Coefficient  Atom+Function  
  ----- ------------  ---------------      ----- ------------  ---------------
     2      0.424194   1 C  s                 3      0.359641   1 C  s         
     1      0.308812   1 C  s                 4      0.057094   1 C  s         
 
 Vector    3  Occ=2.000000D+00  E=-9.947090D+00
              MO Center= -1.8D-01, -1.5D+00, -7.9D-03, r^2= 2.8D-02
   Bfn.  Coefficient  Atom+Function         Bfn.  Coefficient  Atom+Function  
  ----- ------------  ---------------      ----- ------------  ---------------
    56      0.424275   7 C  s                57      0.359546   7 C  s         
    55      0.308849   7 C  s                58      0.057111   7 C  s         
 
 Vector    4  Occ=2.000000D+00  E=-9.881326D+00
              MO Center=  1.2D+00,  1.1D+00, -9.8D-02, r^2= 2.8D-02
   Bfn.  Coefficient  Atom+Function         Bfn.  Coefficient  Atom+Function  
  ----- ------------  ---------------      ----- ------------  ---------------
    17      0.424130   2 C  s                18      0.359589   2 C  s         
    16      0.308798   2 C  s                19      0.057403   2 C  s         
 
 Vector    5  Occ=2.000000D+00  E=-9.727489D-01
              MO Center= -6.7D-01, -1.9D-01,  6.4D-02, r^2= 6.6D-01
   Bfn.  Coefficient  Atom+Function         Bfn.  Coefficient  Atom+Function  
  ----- ------------  ---------------      ----- ------------  ---------------
    38      0.498794   4 O  s                39      0.272499   4 O  s         
     5      0.165428   1 C  s                59      0.146936   7 C  s         
    36     -0.140011   4 O  s                35     -0.116507   4 O  s         
    37      0.113830   4 O  s                43      0.093314   4 O  px        
    40      0.087693   4 O  px                8     -0.075277   1 C  py        
 
 Vector    6  Occ=2.000000D+00  E=-6.957786D-01
              MO Center=  1.7D-01,  4.4D-01, -9.4D-03, r^2= 2.3D+00
   Bfn.  Coefficient  Atom+Function         Bfn.  Coefficient  Atom+Function  
  ----- ------------  ---------------      ----- ------------  ---------------
     5      0.359100   1 C  s                20      0.306954   2 C  s         
    59     -0.260902   7 C  s                41      0.129380   4 O  py        
     3     -0.104603   1 C  s                44      0.105080   4 O  py        
    18     -0.093346   2 C  s                21      0.088331   2 C  s         
     2     -0.081498   1 C  s                 4      0.080110   1 C  s         
 
 Vector    7  Occ=2.000000D+00  E=-6.444174D-01
              MO Center=  1.2D-01, -4.7D-01, -2.0D-02, r^2= 2.8D+00
   Bfn.  Coefficient  Atom+Function         Bfn.  Coefficient  Atom+Function  
  ----- ------------  ---------------      ----- ------------  ---------------
    59      0.387627   7 C  s                20      0.258270   2 C  s         
    60      0.178915   7 C  s                38     -0.153459   4 O  s         
     7      0.137866   1 C  px               41     -0.133708   4 O  py        
    39     -0.128320   4 O  s                44     -0.109521   4 O  py        
    57     -0.102140   7 C  s                10      0.097283   1 C  px        
 
 Vector    8  Occ=2.000000D+00  E=-5.197889D-01
              MO Center=  8.3D-02,  4.4D-02, -7.6D-03, r^2= 3.4D+00
   Bfn.  Coefficient  Atom+Function         Bfn.  Coefficient  Atom+Function  
  ----- ------------  ---------------      ----- ------------  ---------------
     5      0.272915   1 C  s                20     -0.229594   2 C  s         
    59      0.181887   7 C  s                41      0.166893   4 O  py        
    44      0.141550   4 O  py               38     -0.136772   4 O  s         
    39     -0.132878   4 O  s                62     -0.125090   7 C  py        
     7     -0.117748   1 C  px               32      0.104821   3 H  s         
 
 Vector    9  Occ=2.000000D+00  E=-4.596112D-01
              MO Center= -3.4D-02,  1.2D-01,  5.6D-03, r^2= 2.9D+00
   Bfn.  Coefficient  Atom+Function         Bfn.  Coefficient  Atom+Function  
  ----- ------------  ---------------      ----- ------------  ---------------
     8      0.216628   1 C  py               61     -0.177232   7 C  px        
    11      0.174670   1 C  py               41     -0.173146   4 O  py        
    64     -0.161959   7 C  px               44     -0.147240   4 O  py        
    23      0.145601   2 C  py               40     -0.125717   4 O  px        
    26      0.110206   2 C  py               43     -0.101868   4 O  px        
 
 Vector   10  Occ=2.000000D+00  E=-4.288095D-01
              MO Center=  5.5D-01,  5.5D-01, -4.6D-02, r^2= 2.9D+00
   Bfn.  Coefficient  Atom+Function         Bfn.  Coefficient  Atom+Function  
  ----- ------------  ---------------      ----- ------------  ---------------
    22      0.256960   2 C  px                7     -0.206528   1 C  px        
    10     -0.174508   1 C  px               20      0.152493   2 C  s         
    25      0.150263   2 C  px               41      0.148380   4 O  py        
    62     -0.137204   7 C  py               44      0.129072   4 O  py        
    40     -0.128379   4 O  px                5     -0.125948   1 C  s         
 
 Vector   11  Occ=2.000000D+00  E=-4.140088D-01
              MO Center= -1.6D-01, -1.1D+00, -3.3D-03, r^2= 1.7D+00
   Bfn.  Coefficient  Atom+Function         Bfn.  Coefficient  Atom+Function  
  ----- ------------  ---------------      ----- ------------  ---------------
    63      0.290904   7 C  pz               66      0.258712   7 C  pz        
    42      0.206556   4 O  pz               45      0.176226   4 O  pz        
    74      0.137101   9 H  s                77     -0.137155  10 H  s         
    73      0.119118   9 H  s                76     -0.119173  10 H  s         
    48      0.089243   4 O  pz                9      0.083744   1 C  pz        
 
 Vector   12  Occ=2.000000D+00  E=-3.744868D-01
              MO Center=  1.6D-03, -6.4D-01, -1.1D-02, r^2= 3.8D+00
   Bfn.  Coefficient  Atom+Function         Bfn.  Coefficient  Atom+Function  
  ----- ------------  ---------------      ----- ------------  ---------------
    61      0.198352   7 C  px               62      0.197283   7 C  py        
    71     -0.193744   8 H  s                23      0.170601   2 C  py        
    64      0.164775   7 C  px               65      0.162507   7 C  py        
    70     -0.147118   8 H  s                26      0.131494   2 C  py        
    50      0.117705   5 H  s                 8      0.107515   1 C  py        
 
 Vector   13  Occ=2.000000D+00  E=-3.402722D-01
              MO Center=  6.1D-01,  8.8D-01, -4.6D-02, r^2= 2.8D+00
   Bfn.  Coefficient  Atom+Function         Bfn.  Coefficient  Atom+Function  
  ----- ------------  ---------------      ----- ------------  ---------------
    23      0.235595   2 C  py               26      0.207541   2 C  py        
    53     -0.184524   6 H  s                32     -0.172631   3 H  s         
     8     -0.154644   1 C  py               50      0.148264   5 H  s         
    41      0.138344   4 O  py               52     -0.135937   6 H  s         
    44      0.127484   4 O  py               31     -0.123230   3 H  s         
 
 Vector   14  Occ=2.000000D+00  E=-3.038311D-01
              MO Center= -2.1D-01, -7.7D-02,  2.0D-02, r^2= 2.3D+00
   Bfn.  Coefficient  Atom+Function         Bfn.  Coefficient  Atom+Function  
  ----- ------------  ---------------      ----- ------------  ---------------
    42      0.277191   4 O  pz                9      0.242174   1 C  pz        
    45      0.235920   4 O  pz               12      0.224096   1 C  pz        
    63     -0.172869   7 C  pz               48      0.164800   4 O  pz        
    74     -0.139495   9 H  s                77      0.139508  10 H  s         
    24      0.130542   2 C  pz               66     -0.129163   7 C  pz        
 
 Vector   15  Occ=2.000000D+00  E=-2.893963D-01
              MO Center= -6.8D-01, -2.8D-01,  6.4D-02, r^2= 2.1D+00
   Bfn.  Coefficient  Atom+Function         Bfn.  Coefficient  Atom+Function  
  ----- ------------  ---------------      ----- ------------  ---------------
    40      0.366817   4 O  px               43      0.303811   4 O  px        
    46      0.209836   4 O  px               39     -0.181969   4 O  s         
    61     -0.168092   7 C  px               38     -0.162946   4 O  s         
     7     -0.154726   1 C  px               21     -0.141252   2 C  s         
    25      0.136504   2 C  px               22      0.133676   2 C  px        
 
 Vector   16  Occ=2.000000D+00  E=-2.025328D-01
              MO Center=  2.4D-01,  5.0D-01, -1.5D-02, r^2= 2.5D+00
   Bfn.  Coefficient  Atom+Function         Bfn.  Coefficient  Atom+Function  
  ----- ------------  ---------------      ----- ------------  ---------------
    42     -0.307092   4 O  pz               24      0.283672   2 C  pz        
    27      0.278258   2 C  pz               45     -0.261301   4 O  pz        
    48     -0.230611   4 O  pz               30      0.200789   2 C  pz        
     9      0.172797   1 C  pz               12      0.162441   1 C  pz        
    75      0.092260   9 H  s                78     -0.092259  10 H  s         
 
 Vector   17  Occ=0.000000D+00  E=-9.774086D-03
              MO Center=  4.0D-01,  9.2D-01, -2.4D-02, r^2= 2.4D+00
   Bfn.  Coefficient  Atom+Function         Bfn.  Coefficient  Atom+Function  
  ----- ------------  ---------------      ----- ------------  ---------------
    15      0.600564   1 C  pz               30     -0.602554   2 C  pz        
    12      0.387841   1 C  pz                9      0.347869   1 C  pz        
    27     -0.296699   2 C  pz               24     -0.280686   2 C  pz        
    48     -0.241140   4 O  pz               42     -0.176745   4 O  pz        
    45     -0.136816   4 O  pz               74      0.071802   9 H  s         
 
 Vector   18  Occ=0.000000D+00  E= 2.491191D-02
              MO Center=  6.9D-01, -1.4D+00, -9.5D-02, r^2= 5.6D+00
   Bfn.  Coefficient  Atom+Function         Bfn.  Coefficient  Atom+Function  
  ----- ------------  ---------------      ----- ------------  ---------------
    60      2.263178   7 C  s                54     -1.086126   6 H  s         
    75     -0.930720   9 H  s                78     -0.930925  10 H  s         
    21      0.882200   2 C  s                29     -0.538530   2 C  py        
    72     -0.519260   8 H  s                14      0.435049   1 C  py        
    39     -0.348654   4 O  s                33     -0.335817   3 H  s         
 
 Vector   19  Occ=0.000000D+00  E= 3.720207D-02
              MO Center= -1.2D-01, -3.1D-01,  6.3D-03, r^2= 5.4D+00
   Bfn.  Coefficient  Atom+Function         Bfn.  Coefficient  Atom+Function  
  ----- ------------  ---------------      ----- ------------  ---------------
    51      1.027488   5 H  s                39     -0.896287   4 O  s         
    68      0.710614   7 C  py               29     -0.610426   2 C  py        
     6     -0.561471   1 C  s                67     -0.515922   7 C  px        
    54     -0.411337   6 H  s                33      0.352253   3 H  s         
    72      0.323897   8 H  s                75      0.307821   9 H  s         
 
 Vector   20  Occ=0.000000D+00  E= 5.746217D-02
              MO Center= -3.0D-01,  1.6D+00,  5.8D-02, r^2= 6.0D+00
   Bfn.  Coefficient  Atom+Function         Bfn.  Coefficient  Atom+Function  
  ----- ------------  ---------------      ----- ------------  ---------------
    33      2.078546   3 H  s                 6     -1.289317   1 C  s         
    51      0.969010   5 H  s                21     -0.937730   2 C  s         
    14     -0.792595   1 C  py               13      0.740042   1 C  px        
    75     -0.534209   9 H  s                78     -0.534140  10 H  s         
    68     -0.521480   7 C  py               60      0.466229   7 C  s         
 
 Vector   21  Occ=0.000000D+00  E= 7.380278D-02
              MO Center=  6.9D-01, -6.8D-02, -7.1D-02, r^2= 1.0D+01
   Bfn.  Coefficient  Atom+Function         Bfn.  Coefficient  Atom+Function  
  ----- ------------  ---------------      ----- ------------  ---------------
    21      2.252903   2 C  s                72      1.505864   8 H  s         
    51     -1.230718   5 H  s                60     -1.132621   7 C  s         
    54     -1.105335   6 H  s                 6     -1.096229   1 C  s         
    33      0.619971   3 H  s                67      0.469651   7 C  px        
    14     -0.336085   1 C  py               13     -0.319889   1 C  px        
 
 Vector   22  Occ=0.000000D+00  E= 9.015730D-02
              MO Center= -3.3D-01, -1.5D+00,  6.3D-03, r^2= 6.4D+00
   Bfn.  Coefficient  Atom+Function         Bfn.  Coefficient  Atom+Function  
  ----- ------------  ---------------      ----- ------------  ---------------
    72      2.491451   8 H  s                67      1.385924   7 C  px        
    75     -1.154366   9 H  s                78     -1.156544  10 H  s         
    68      1.104925   7 C  py               33     -0.943775   3 H  s         
    21     -0.869101   2 C  s                14      0.755698   1 C  py        
     6      0.435105   1 C  s                54      0.387512   6 H  s         
 
 Vector   23  Occ=0.000000D+00  E= 9.272921D-02
              MO Center=  6.9D-01, -1.5D+00, -9.6D-02, r^2= 4.1D+00
   Bfn.  Coefficient  Atom+Function         Bfn.  Coefficient  Atom+Function  
  ----- ------------  ---------------      ----- ------------  ---------------
    75      2.099582   9 H  s                78     -2.098280  10 H  s         
    69     -1.394625   7 C  pz               66     -0.382736   7 C  pz        
    63     -0.283943   7 C  pz               48      0.230661   4 O  pz        
    67     -0.141631   7 C  px               30      0.124192   2 C  pz        
    27     -0.123293   2 C  pz               42      0.077571   4 O  pz        
 
 Vector   24  Occ=0.000000D+00  E= 1.143791D-01
              MO Center=  8.2D-01,  8.4D-01, -6.8D-02, r^2= 7.3D+00
   Bfn.  Coefficient  Atom+Function         Bfn.  Coefficient  Atom+Function  
  ----- ------------  ---------------      ----- ------------  ---------------
    54     -2.151717   6 H  s                 6      2.040492   1 C  s         
    51      1.965850   5 H  s                29     -1.732162   2 C  py        
    33     -1.431321   3 H  s                28      0.691277   2 C  px        
    14      0.673738   1 C  py               60     -0.463826   7 C  s         
    68     -0.431662   7 C  py               47     -0.410597   4 O  py        
 
 Vector   25  Occ=0.000000D+00  E= 1.612398D-01
              MO Center=  7.4D-01,  8.7D-01, -5.9D-02, r^2= 6.5D+00
   Bfn.  Coefficient  Atom+Function         Bfn.  Coefficient  Atom+Function  
  ----- ------------  ---------------      ----- ------------  ---------------
    14      2.245676   1 C  py               29     -1.963194   2 C  py        
    51      1.944041   5 H  s                 6     -1.853904   1 C  s         
    33     -1.473367   3 H  s                28     -1.314117   2 C  px        
    54     -1.287857   6 H  s                39      0.854487   4 O  s         
    47      0.764810   4 O  py               67     -0.716528   7 C  px        
 
 Vector   26  Occ=0.000000D+00  E= 1.888393D-01
              MO Center=  8.8D-01,  1.2D-01, -8.6D-02, r^2= 6.9D+00
   Bfn.  Coefficient  Atom+Function         Bfn.  Coefficient  Atom+Function  
  ----- ------------  ---------------      ----- ------------  ---------------
    13      2.724458   1 C  px               28      2.571681   2 C  px        
    21     -2.202302   2 C  s                 6      1.780172   1 C  s         
    33      1.766190   3 H  s                67     -1.613901   7 C  px        
    54     -1.076855   6 H  s                47      0.831680   4 O  py        
    51     -0.738096   5 H  s                75      0.581303   9 H  s         
 
 Vector   27  Occ=0.000000D+00  E= 1.943182D-01
              MO Center= -6.4D-01, -1.1D+00,  4.4D-02, r^2= 5.0D+00
   Bfn.  Coefficient  Atom+Function         Bfn.  Coefficient  Atom+Function  
  ----- ------------  ---------------      ----- ------------  ---------------
    69      2.295805   7 C  pz               75     -1.163043   9 H  s         
    78      1.161750  10 H  s                15      0.616149   1 C  pz        
    48     -0.446676   4 O  pz               74     -0.427420   9 H  s         
    77      0.427019  10 H  s                12     -0.269240   1 C  pz        
    66     -0.245083   7 C  pz               67      0.234017   7 C  px        
 
 Vector   28  Occ=0.000000D+00  E= 2.188978D-01
              MO Center=  3.5D-01,  5.6D-01, -2.5D-02, r^2= 6.4D+00
   Bfn.  Coefficient  Atom+Function         Bfn.  Coefficient  Atom+Function  
  ----- ------------  ---------------      ----- ------------  ---------------
    69     -0.813028   7 C  pz               15      0.753631   1 C  pz        
    30      0.731804   2 C  pz               27     -0.514557   2 C  pz        
    12     -0.420945   1 C  pz               66      0.202353   7 C  pz        
    74      0.189121   9 H  s                77     -0.189202  10 H  s         
    24     -0.187001   2 C  pz                9     -0.135089   1 C  pz        
 
 Vector   29  Occ=0.000000D+00  E= 2.430678D-01
              MO Center= -9.9D-02, -3.1D-01,  4.6D-03, r^2= 4.8D+00
   Bfn.  Coefficient  Atom+Function         Bfn.  Coefficient  Atom+Function  
  ----- ------------  ---------------      ----- ------------  ---------------
    54      1.650181   6 H  s                28     -1.349843   2 C  px        
    29      1.120488   2 C  py               67     -0.745750   7 C  px        
    65     -0.595640   7 C  py               14     -0.537557   1 C  py        
    51     -0.493212   5 H  s                20     -0.489304   2 C  s         
    39     -0.476599   4 O  s                64      0.432180   7 C  px        
 
 Vector   30  Occ=0.000000D+00  E= 2.550212D-01
              MO Center= -3.9D-01,  5.7D-01,  4.9D-02, r^2= 5.7D+00
   Bfn.  Coefficient  Atom+Function         Bfn.  Coefficient  Atom+Function  
  ----- ------------  ---------------      ----- ------------  ---------------
    13      3.236840   1 C  px               21     -2.175938   2 C  s         
    28      2.097403   2 C  px                6      2.084400   1 C  s         
    51     -1.588898   5 H  s                33      1.301053   3 H  s         
    68      1.177303   7 C  py               54     -1.107951   6 H  s         
    67      0.998857   7 C  px               72      0.974081   8 H  s         
 
 Vector   31  Occ=0.000000D+00  E= 2.721159D-01
              MO Center=  1.9D-01,  2.6D-01, -1.5D-02, r^2= 6.1D+00
   Bfn.  Coefficient  Atom+Function         Bfn.  Coefficient  Atom+Function  
  ----- ------------  ---------------      ----- ------------  ---------------
    14      2.368942   1 C  py               33     -2.188611   3 H  s         
    29     -2.048423   2 C  py               13     -1.869521   1 C  px        
    68      1.782441   7 C  py               54     -1.344590   6 H  s         
     6     -1.135113   1 C  s                51      1.038541   5 H  s         
    21      0.938207   2 C  s                72      0.753231   8 H  s         
 
 Vector   32  Occ=0.000000D+00  E= 2.881491D-01
              MO Center=  5.4D-01,  9.1D-01, -3.8D-02, r^2= 5.6D+00
   Bfn.  Coefficient  Atom+Function         Bfn.  Coefficient  Atom+Function  
  ----- ------------  ---------------      ----- ------------  ---------------
    15      1.675277   1 C  pz               30     -1.601846   2 C  pz        
    27      0.620716   2 C  pz               69     -0.620933   7 C  pz        
    12     -0.582776   1 C  pz               75      0.278391   9 H  s         
    78     -0.278209  10 H  s                74      0.271612   9 H  s         
    77     -0.271463  10 H  s                24      0.236313   2 C  pz        
 
 Vector   33  Occ=0.000000D+00  E= 3.091449D-01
              MO Center=  3.3D-01,  2.3D-02, -3.3D-02, r^2= 5.1D+00
   Bfn.  Coefficient  Atom+Function         Bfn.  Coefficient  Atom+Function  
  ----- ------------  ---------------      ----- ------------  ---------------
    29      1.529718   2 C  py               51     -1.374953   5 H  s         
    54      1.285235   6 H  s                21     -1.266706   2 C  s         
    60      1.081146   7 C  s                 5      0.920204   1 C  s         
    71     -0.822103   8 H  s                14      0.742127   1 C  py        
    72      0.616148   8 H  s                53      0.598926   6 H  s         
 
 Vector   34  Occ=0.000000D+00  E= 3.770188D-01
              MO Center=  2.8D-01, -2.9D-01, -3.3D-02, r^2= 6.7D+00
   Bfn.  Coefficient  Atom+Function         Bfn.  Coefficient  Atom+Function  
  ----- ------------  ---------------      ----- ------------  ---------------
    72      2.967326   8 H  s                67      2.715462   7 C  px        
    54     -2.239129   6 H  s                68      2.170343   7 C  py        
     6      2.063747   1 C  s                14      1.560558   1 C  py        
    28      1.415717   2 C  px               13     -1.154008   1 C  px        
    60     -1.142021   7 C  s                32     -0.991061   3 H  s         
 
 Vector   35  Occ=0.000000D+00  E= 3.912994D-01
              MO Center=  3.9D-01,  6.2D-01, -2.9D-02, r^2= 5.9D+00
   Bfn.  Coefficient  Atom+Function         Bfn.  Coefficient  Atom+Function  
  ----- ------------  ---------------      ----- ------------  ---------------
    33     -3.084777   3 H  s                21      2.843461   2 C  s         
    13     -2.469439   1 C  px               54      1.801763   6 H  s         
    14      1.718125   1 C  py               72      1.656077   8 H  s         
    29      1.310399   2 C  py               68      1.277163   7 C  py        
    28     -1.021221   2 C  px               53     -1.008535   6 H  s         
 
 Vector   36  Occ=0.000000D+00  E= 4.129916D-01
              MO Center=  4.4D-01, -1.5D+00, -6.7D-02, r^2= 4.1D+00
   Bfn.  Coefficient  Atom+Function         Bfn.  Coefficient  Atom+Function  
  ----- ------------  ---------------      ----- ------------  ---------------
    75      2.805413   9 H  s                78     -2.792599  10 H  s         
    69     -2.210579   7 C  pz               74     -1.210024   9 H  s         
    77      1.201195  10 H  s                66      1.106064   7 C  pz        
    30     -0.479164   2 C  pz               15      0.395851   1 C  pz        
    63      0.330643   7 C  pz               67     -0.222164   7 C  px        
 
 Vector   37  Occ=0.000000D+00  E= 4.146224D-01
              MO Center=  1.6D-01, -2.0D-01, -2.5D-02, r^2= 6.4D+00
   Bfn.  Coefficient  Atom+Function         Bfn.  Coefficient  Atom+Function  
  ----- ------------  ---------------      ----- ------------  ---------------
     6      3.146451   1 C  s                29      1.981400   2 C  py        
    33     -1.961859   3 H  s                51     -1.759748   5 H  s         
    14      1.179997   1 C  py               71      0.973012   8 H  s         
    78      0.947833  10 H  s                75      0.906711   9 H  s         
    10      0.835412   1 C  px               13     -0.799683   1 C  px        
 
 Vector   38  Occ=0.000000D+00  E= 4.452925D-01
              MO Center=  4.7D-01,  4.7D-01, -3.8D-02, r^2= 7.5D+00
   Bfn.  Coefficient  Atom+Function         Bfn.  Coefficient  Atom+Function  
  ----- ------------  ---------------      ----- ------------  ---------------
    29      5.088396   2 C  py               51     -4.455425   5 H  s         
    14     -3.399947   1 C  py               72      2.442897   8 H  s         
    33      2.086384   3 H  s                67      1.894161   7 C  px        
    13      1.610181   1 C  px                6      1.513850   1 C  s         
    54      1.509627   6 H  s                28      1.292619   2 C  px        
 
 Vector   39  Occ=0.000000D+00  E= 4.644553D-01
              MO Center=  7.5D-02, -1.5D+00, -3.3D-02, r^2= 5.5D+00
   Bfn.  Coefficient  Atom+Function         Bfn.  Coefficient  Atom+Function  
  ----- ------------  ---------------      ----- ------------  ---------------
    60      3.721793   7 C  s                54      2.813102   6 H  s         
    29      2.767035   2 C  py               14     -2.538136   1 C  py        
    72     -2.376480   8 H  s                59     -2.131105   7 C  s         
    68     -1.679597   7 C  py                6     -1.527148   1 C  s         
    51     -1.515411   5 H  s                33      1.374384   3 H  s         
 
 Vector   40  Occ=0.000000D+00  E= 4.839160D-01
              MO Center=  5.1D-02,  5.4D-01,  4.5D-03, r^2= 6.1D+00
   Bfn.  Coefficient  Atom+Function         Bfn.  Coefficient  Atom+Function  
  ----- ------------  ---------------      ----- ------------  ---------------
     6      3.249471   1 C  s                29     -3.038557   2 C  py        
    60      3.033768   7 C  s                33     -2.903357   3 H  s         
    14      2.377393   1 C  py               54     -2.101913   6 H  s         
    51      1.951923   5 H  s                 5     -1.433159   1 C  s         
    20     -1.080738   2 C  s                13     -0.987619   1 C  px        
 
 Vector   41  Occ=0.000000D+00  E= 4.854511D-01
              MO Center= -4.3D-01, -1.1D-01,  4.1D-02, r^2= 6.3D+00
   Bfn.  Coefficient  Atom+Function         Bfn.  Coefficient  Atom+Function  
  ----- ------------  ---------------      ----- ------------  ---------------
    33      2.791059   3 H  s                13      2.711606   1 C  px        
    51     -2.316552   5 H  s                29      2.294747   2 C  py        
    60      2.280336   7 C  s                14     -2.179033   1 C  py        
    28      1.867183   2 C  px               46     -1.822767   4 O  px        
    54     -1.327217   6 H  s                67      1.228757   7 C  px        
 
 Vector   42  Occ=0.000000D+00  E= 5.168722D-01
              MO Center=  8.2D-01,  6.8D-01, -7.1D-02, r^2= 5.9D+00
   Bfn.  Coefficient  Atom+Function         Bfn.  Coefficient  Atom+Function  
  ----- ------------  ---------------      ----- ------------  ---------------
    21      5.059329   2 C  s                14      3.517701   1 C  py        
    54     -3.001727   6 H  s                33     -2.386752   3 H  s         
    28      1.727240   2 C  px               13     -1.683683   1 C  px        
    20     -1.598092   2 C  s                29     -1.605244   2 C  py        
    75      1.105539   9 H  s                78      1.104934  10 H  s         
 
 Vector   43  Occ=0.000000D+00  E= 5.472450D-01
              MO Center= -9.8D-01, -2.0D-01,  9.6D-02, r^2= 3.3D+00
   Bfn.  Coefficient  Atom+Function         Bfn.  Coefficient  Atom+Function  
  ----- ------------  ---------------      ----- ------------  ---------------
    48      2.057638   4 O  pz               69     -1.351830   7 C  pz        
    15     -0.859389   1 C  pz               75      0.823292   9 H  s         
    78     -0.824345  10 H  s                45     -0.739674   4 O  pz        
    42     -0.296008   4 O  pz               30      0.293785   2 C  pz        
    46      0.206857   4 O  px               67     -0.136969   7 C  px        
 
 Vector   44  Occ=0.000000D+00  E= 5.874462D-01
              MO Center=  4.4D-01,  6.2D-01, -3.2D-02, r^2= 5.0D+00
   Bfn.  Coefficient  Atom+Function         Bfn.  Coefficient  Atom+Function  
  ----- ------------  ---------------      ----- ------------  ---------------
    29      5.215242   2 C  py               14     -3.337699   1 C  py        
    51     -2.640735   5 H  s                33      1.715280   3 H  s         
    72      1.504527   8 H  s                68      1.436373   7 C  py        
    67      1.226669   7 C  px               53      1.214349   6 H  s         
    50     -1.104175   5 H  s                13      1.093072   1 C  px        
 
 Vector   45  Occ=0.000000D+00  E= 6.068631D-01
              MO Center=  3.3D-01,  7.6D-01, -2.0D-02, r^2= 4.8D+00
   Bfn.  Coefficient  Atom+Function         Bfn.  Coefficient  Atom+Function  
  ----- ------------  ---------------      ----- ------------  ---------------
     6      7.202187   1 C  s                21     -5.361903   2 C  s         
    28      2.982655   2 C  px               20      2.269254   2 C  s         
    60      2.120100   7 C  s                14      1.834327   1 C  py        
     5     -1.818498   1 C  s                54     -1.445825   6 H  s         
    13      1.294165   1 C  px               29     -1.161641   2 C  py        
 
 Vector   46  Occ=0.000000D+00  E= 6.590769D-01
              MO Center= -4.2D-02, -5.0D-01, -4.8D-03, r^2= 5.3D+00
   Bfn.  Coefficient  Atom+Function         Bfn.  Coefficient  Atom+Function  
  ----- ------------  ---------------      ----- ------------  ---------------
    60      6.463476   7 C  s                 6     -4.915327   1 C  s         
    14      4.496416   1 C  py               21      4.390614   2 C  s         
    33     -2.730205   3 H  s                13     -2.594605   1 C  px        
    47      2.495588   4 O  py               68      1.976761   7 C  py        
    29     -1.903122   2 C  py               59     -1.759223   7 C  s         
 
 Vector   47  Occ=0.000000D+00  E= 7.197666D-01
              MO Center= -1.1D+00,  4.3D-01,  1.2D-01, r^2= 4.2D+00
   Bfn.  Coefficient  Atom+Function         Bfn.  Coefficient  Atom+Function  
  ----- ------------  ---------------      ----- ------------  ---------------
    21      7.337260   2 C  s                13     -5.824822   1 C  px        
    47     -3.820385   4 O  py                6     -3.460562   1 C  s         
    60     -2.768491   7 C  s                28     -2.450613   2 C  px        
    33     -2.141062   3 H  s                46      1.965967   4 O  px        
     5      1.081788   1 C  s                20     -1.039848   2 C  s         
 
 Vector   48  Occ=0.000000D+00  E= 1.168317D+00
              MO Center= -6.4D-01, -1.5D-01,  6.2D-02, r^2= 3.0D+00
   Bfn.  Coefficient  Atom+Function         Bfn.  Coefficient  Atom+Function  
  ----- ------------  ---------------      ----- ------------  ---------------
    39      6.440831   4 O  s                38     -3.165123   4 O  s         
    60     -3.092814   7 C  s                 6     -2.990279   1 C  s         
    29     -2.971373   2 C  py               14      2.737789   1 C  py        
    21      2.726493   2 C  s                13     -2.020275   1 C  px        
    33     -1.752458   3 H  s                51      1.746704   5 H  s         
 
 Vector   49  Occ=0.000000D+00  E= 1.354834D+00
              MO Center=  7.4D-02,  7.9D-01,  6.9D-03, r^2= 2.2D+00
   Bfn.  Coefficient  Atom+Function         Bfn.  Coefficient  Atom+Function  
  ----- ------------  ---------------      ----- ------------  ---------------
    12      1.377423   1 C  pz                9     -1.061155   1 C  pz        
    15     -0.662380   1 C  pz               66      0.618714   7 C  pz        
    27      0.605895   2 C  pz               24     -0.598774   2 C  pz        
    69     -0.401753   7 C  pz               63     -0.358836   7 C  pz        
    75      0.355652   9 H  s                78     -0.355540  10 H  s         
 
 Vector   50  Occ=0.000000D+00  E= 1.366473D+00
              MO Center=  3.6D-03, -5.9D-01, -1.1D-02, r^2= 3.5D+00
   Bfn.  Coefficient  Atom+Function         Bfn.  Coefficient  Atom+Function  
  ----- ------------  ---------------      ----- ------------  ---------------
    65      1.552053   7 C  py               25     -1.122595   2 C  px        
    10     -1.064793   1 C  px               11     -1.000928   1 C  py        
    62     -0.850611   7 C  py               68     -0.827271   7 C  py        
    64     -0.760998   7 C  px               51     -0.723105   5 H  s         
     6      0.645125   1 C  s                38     -0.625456   4 O  s         
 
 Vector   51  Occ=0.000000D+00  E= 1.387656D+00
              MO Center=  1.3D-01,  5.4D-02, -1.2D-02, r^2= 3.4D+00
   Bfn.  Coefficient  Atom+Function         Bfn.  Coefficient  Atom+Function  
  ----- ------------  ---------------      ----- ------------  ---------------
    10      1.797242   1 C  px               25      1.416076   2 C  px        
    72     -1.411645   8 H  s                65      1.338274   7 C  py        
    67     -1.200485   7 C  px               33     -1.127674   3 H  s         
    68     -1.092722   7 C  py               54      0.949413   6 H  s         
    28     -0.937973   2 C  px               11     -0.790868   1 C  py        
 
 Vector   52  Occ=0.000000D+00  E= 1.407048D+00
              MO Center=  4.4D-01, -1.2D-01, -4.6D-02, r^2= 3.7D+00
   Bfn.  Coefficient  Atom+Function         Bfn.  Coefficient  Atom+Function  
  ----- ------------  ---------------      ----- ------------  ---------------
    66      1.526373   7 C  pz               27     -1.293434   2 C  pz        
    69     -0.954243   7 C  pz               24      0.902608   2 C  pz        
    63     -0.878035   7 C  pz               30      0.688414   2 C  pz        
    75      0.614059   9 H  s                78     -0.614885  10 H  s         
    12      0.464982   1 C  pz               74     -0.448187   9 H  s         
 
 Vector   53  Occ=0.000000D+00  E= 1.439128D+00
              MO Center=  1.2D-01, -1.1D-01, -1.4D-02, r^2= 3.7D+00
   Bfn.  Coefficient  Atom+Function         Bfn.  Coefficient  Atom+Function  
  ----- ------------  ---------------      ----- ------------  ---------------
    66      1.567547   7 C  pz               69     -1.353495   7 C  pz        
    12     -1.105721   1 C  pz               27      1.099431   2 C  pz        
    75      0.990134   9 H  s                78     -0.990316  10 H  s         
    63     -0.874159   7 C  pz               15      0.842857   1 C  pz        
    30     -0.789078   2 C  pz               24     -0.668292   2 C  pz        
 
 Vector   54  Occ=0.000000D+00  E= 1.467474D+00
              MO Center=  2.9D-01,  8.3D-01, -1.5D-02, r^2= 3.0D+00
   Bfn.  Coefficient  Atom+Function         Bfn.  Coefficient  Atom+Function  
  ----- ------------  ---------------      ----- ------------  ---------------
    10      1.266927   1 C  px               11      1.053567   1 C  py        
    29     -0.931993   2 C  py               65      0.934279   7 C  py        
    60      0.871638   7 C  s                26      0.790303   2 C  py        
    14     -0.781203   1 C  py               68     -0.782070   7 C  py        
    25     -0.741063   2 C  px               54     -0.743564   6 H  s         
 
 Vector   55  Occ=0.000000D+00  E= 1.472083D+00
              MO Center=  4.4D-01, -3.3D-01, -5.1D-02, r^2= 4.0D+00
   Bfn.  Coefficient  Atom+Function         Bfn.  Coefficient  Atom+Function  
  ----- ------------  ---------------      ----- ------------  ---------------
    25     -2.026513   2 C  px               21      1.962833   2 C  s         
    64      1.915674   7 C  px               60     -1.884990   7 C  s         
    67     -1.286093   7 C  px               14      1.031584   1 C  py        
    13     -0.995015   1 C  px               39      0.976141   4 O  s         
    75      0.975703   9 H  s                78      0.976430  10 H  s         
 
 Vector   56  Occ=0.000000D+00  E= 1.620446D+00
              MO Center=  3.3D-01,  9.1D-02, -3.2D-02, r^2= 3.3D+00
   Bfn.  Coefficient  Atom+Function         Bfn.  Coefficient  Atom+Function  
  ----- ------------  ---------------      ----- ------------  ---------------
    72      1.559278   8 H  s                29      1.411779   2 C  py        
    10      1.389171   1 C  px               51     -1.386381   5 H  s         
    68      1.392010   7 C  py               26     -1.365789   2 C  py        
    64     -1.156001   7 C  px               67      1.106234   7 C  px        
    65     -0.957497   7 C  py               33     -0.799614   3 H  s         
 
 Vector   57  Occ=0.000000D+00  E= 1.726186D+00
              MO Center=  4.6D-01,  9.0D-01, -3.0D-02, r^2= 2.9D+00
   Bfn.  Coefficient  Atom+Function         Bfn.  Coefficient  Atom+Function  
  ----- ------------  ---------------      ----- ------------  ---------------
    11      2.421183   1 C  py               26     -2.385561   2 C  py        
    29      1.952792   2 C  py               14     -1.665349   1 C  py        
    51     -1.541527   5 H  s                54      1.537426   6 H  s         
    33      1.426813   3 H  s                32     -1.211579   3 H  s         
    50      1.147331   5 H  s                 6     -1.131834   1 C  s         
 
 Vector   58  Occ=0.000000D+00  E= 2.084253D+00
              MO Center= -3.6D-01, -1.6D+00,  7.1D-03, r^2= 3.2D+00
   Bfn.  Coefficient  Atom+Function         Bfn.  Coefficient  Atom+Function  
  ----- ------------  ---------------      ----- ------------  ---------------
    59      2.666842   7 C  s                58     -2.035695   7 C  s         
    71     -1.774303   8 H  s                72      1.109523   8 H  s         
    74     -1.093090   9 H  s                77     -1.092960  10 H  s         
    70      0.922300   8 H  s                 5     -0.643180   1 C  s         
    20      0.602811   2 C  s                21     -0.541560   2 C  s         
 
 Vector   59  Occ=0.000000D+00  E= 2.126303D+00
              MO Center=  1.3D+00,  8.6D-01, -1.2D-01, r^2= 3.2D+00
   Bfn.  Coefficient  Atom+Function         Bfn.  Coefficient  Atom+Function  
  ----- ------------  ---------------      ----- ------------  ---------------
    20      2.034852   2 C  s                 5     -1.787449   1 C  s         
    53     -1.555388   6 H  s                19     -1.408483   2 C  s         
     4      1.315727   1 C  s                50     -1.279323   5 H  s         
    54      1.049620   6 H  s                52      0.900436   6 H  s         
    49      0.847162   5 H  s                33     -0.787518   3 H  s         
 
 Vector   60  Occ=0.000000D+00  E= 2.239297D+00
              MO Center= -2.7D-01,  1.6D+00,  5.5D-02, r^2= 2.8D+00
   Bfn.  Coefficient  Atom+Function         Bfn.  Coefficient  Atom+Function  
  ----- ------------  ---------------      ----- ------------  ---------------
     5      2.167022   1 C  s                32     -1.893457   3 H  s         
     4     -1.646990   1 C  s                14      1.615415   1 C  py        
     6     -1.195048   1 C  s                31      1.186082   3 H  s         
    29     -1.015807   2 C  py               50     -0.943143   5 H  s         
    54     -0.872486   6 H  s                21      0.772664   2 C  s         
 
 Vector   61  Occ=0.000000D+00  E= 2.251483D+00
              MO Center=  5.1D-01, -1.6D+00, -8.0D-02, r^2= 2.0D+00
   Bfn.  Coefficient  Atom+Function         Bfn.  Coefficient  Atom+Function  
  ----- ------------  ---------------      ----- ------------  ---------------
    74      1.644289   9 H  s                77     -1.644196  10 H  s         
    73     -1.121944   9 H  s                76      1.121728  10 H  s         
    75     -1.090318   9 H  s                78      1.090251  10 H  s         
    66     -0.289605   7 C  pz               69      0.268280   7 C  pz        
    45      0.181818   4 O  pz               42     -0.107970   4 O  pz        
 
 Vector   62  Occ=0.000000D+00  E= 2.294414D+00
              MO Center=  1.8D-01, -9.6D-01, -3.6D-02, r^2= 4.4D+00
   Bfn.  Coefficient  Atom+Function         Bfn.  Coefficient  Atom+Function  
  ----- ------------  ---------------      ----- ------------  ---------------
     5      1.693677   1 C  s                59      1.536461   7 C  s         
     4     -1.320552   1 C  s                58     -1.220463   7 C  s         
    71      1.084878   8 H  s                20      1.030168   2 C  s         
    74     -1.021171   9 H  s                77     -1.021673  10 H  s         
     6     -0.970373   1 C  s                70     -0.951271   8 H  s         
 
 Vector   63  Occ=0.000000D+00  E= 2.381614D+00
              MO Center=  9.8D-01,  2.5D-02, -9.8D-02, r^2= 4.4D+00
   Bfn.  Coefficient  Atom+Function         Bfn.  Coefficient  Atom+Function  
  ----- ------------  ---------------      ----- ------------  ---------------
    29      2.139087   2 C  py               53      1.535177   6 H  s         
    14     -1.230292   1 C  py               50     -1.165775   5 H  s         
     5     -1.030708   1 C  s                52     -1.006762   6 H  s         
    71      0.837462   8 H  s                51     -0.823314   5 H  s         
     6      0.796079   1 C  s                 4      0.775284   1 C  s         
 
 Vector   64  Occ=0.000000D+00  E= 2.400231D+00
              MO Center=  3.5D-01,  5.3D-01, -2.6D-02, r^2= 3.4D+00
   Bfn.  Coefficient  Atom+Function         Bfn.  Coefficient  Atom+Function  
  ----- ------------  ---------------      ----- ------------  ---------------
    20      3.372142   2 C  s                19     -2.699137   2 C  s         
    21     -2.403641   2 C  s                 5      2.321133   1 C  s         
     4     -1.946494   1 C  s                59     -1.563994   7 C  s         
     6     -1.453825   1 C  s                14     -1.333426   1 C  py        
    54      1.330976   6 H  s                58      1.270025   7 C  s         
 
 Vector   65  Occ=0.000000D+00  E= 2.562493D+00
              MO Center= -9.1D-01, -2.4D-01,  8.8D-02, r^2= 1.1D+00
   Bfn.  Coefficient  Atom+Function         Bfn.  Coefficient  Atom+Function  
  ----- ------------  ---------------      ----- ------------  ---------------
    45      1.794555   4 O  pz               42     -1.201084   4 O  pz        
    48     -1.199486   4 O  pz               69      0.743334   7 C  pz        
    15      0.443095   1 C  pz               75     -0.415179   9 H  s         
    78      0.415078  10 H  s                66     -0.320160   7 C  pz        
    12     -0.181582   1 C  pz               43      0.181250   4 O  px        
 
 Vector   66  Occ=0.000000D+00  E= 2.563540D+00
              MO Center= -4.8D-02,  1.1D+00,  2.5D-02, r^2= 2.5D+00
   Bfn.  Coefficient  Atom+Function         Bfn.  Coefficient  Atom+Function  
  ----- ------------  ---------------      ----- ------------  ---------------
     6      4.149655   1 C  s                 5     -3.307293   1 C  s         
    21     -3.045682   2 C  s                 4      2.368721   1 C  s         
    20      2.328922   2 C  s                19     -1.648540   2 C  s         
    14      1.456661   1 C  py               29     -1.425329   2 C  py        
    28      1.033329   2 C  px               32     -0.947388   3 H  s         
 
 Vector   67  Occ=0.000000D+00  E= 2.636782D+00
              MO Center= -2.8D-01, -7.4D-01,  1.5D-02, r^2= 2.5D+00
   Bfn.  Coefficient  Atom+Function         Bfn.  Coefficient  Atom+Function  
  ----- ------------  ---------------      ----- ------------  ---------------
    60      3.520380   7 C  s                59     -3.193883   7 C  s         
    58      2.355980   7 C  s                 6      1.427310   1 C  s         
    14      1.279584   1 C  py               29     -1.138120   2 C  py        
    43      1.143064   4 O  px                5     -0.963650   1 C  s         
    54     -0.899489   6 H  s                21     -0.868762   2 C  s         
 
 Vector   68  Occ=0.000000D+00  E= 2.746485D+00
              MO Center=  7.1D-02, -2.7D-01, -1.2D-02, r^2= 3.2D+00
   Bfn.  Coefficient  Atom+Function         Bfn.  Coefficient  Atom+Function  
  ----- ------------  ---------------      ----- ------------  ---------------
    21      4.505499   2 C  s                 6     -3.290095   1 C  s         
    60      3.040683   7 C  s                20     -2.857068   2 C  s         
    59     -2.650596   7 C  s                13     -2.394225   1 C  px        
    19      1.957938   2 C  s                58      1.924465   7 C  s         
    14      1.793715   1 C  py                5      1.706336   1 C  s         
 
 Vector   69  Occ=0.000000D+00  E= 2.834097D+00
              MO Center= -7.8D-01, -3.1D-01,  7.3D-02, r^2= 1.6D+00
   Bfn.  Coefficient  Atom+Function         Bfn.  Coefficient  Atom+Function  
  ----- ------------  ---------------      ----- ------------  ---------------
    60      3.131129   7 C  s                47      2.199960   4 O  py        
    44     -1.949914   4 O  py               21     -1.938337   2 C  s         
    13      1.616860   1 C  px               59     -1.564244   7 C  s         
    41      1.148146   4 O  py               20      1.002109   2 C  s         
    58      0.979223   7 C  s                28      0.769721   2 C  px        
 
 Vector   70  Occ=0.000000D+00  E= 4.586686D+00
              MO Center= -9.0D-01, -2.1D-01,  8.7D-02, r^2= 8.9D-01
   Bfn.  Coefficient  Atom+Function         Bfn.  Coefficient  Atom+Function  
  ----- ------------  ---------------      ----- ------------  ---------------
    38      5.105079   4 O  s                39     -3.979429   4 O  s         
    37     -3.919434   4 O  s                14     -1.429447   1 C  py        
     6      1.420981   1 C  s                29      1.393531   2 C  py        
    60      1.360490   7 C  s                21     -1.166456   2 C  s         
    36      0.822656   4 O  s                51     -0.719253   5 H  s         
 
 Vector   71  Occ=0.000000D+00  E= 1.139733D+01
              MO Center=  3.9D-01,  1.0D+00, -2.2D-02, r^2= 8.0D-01
   Bfn.  Coefficient  Atom+Function         Bfn.  Coefficient  Atom+Function  
  ----- ------------  ---------------      ----- ------------  ---------------
     3      2.450134   1 C  s                 4     -2.432774   1 C  s         
    18      2.096811   2 C  s                19     -2.068580   2 C  s         
     5      1.943553   1 C  s                20      1.631764   2 C  s         
     2     -1.296581   1 C  s                17     -1.112639   2 C  s         
     6     -0.910423   1 C  s                21     -0.838822   2 C  s         
 
 Vector   72  Occ=0.000000D+00  E= 1.160181D+01
              MO Center= -1.7D-01, -1.4D+00, -8.6D-03, r^2= 5.4D-01
   Bfn.  Coefficient  Atom+Function         Bfn.  Coefficient  Atom+Function  
  ----- ------------  ---------------      ----- ------------  ---------------
    58     -3.316821   7 C  s                57      3.228266   7 C  s         
    59      2.866255   7 C  s                60     -1.831237   7 C  s         
    56     -1.691777   7 C  s                 4     -0.435077   1 C  s         
     3      0.422289   1 C  s                 5      0.382593   1 C  s         
    14     -0.368264   1 C  py               18     -0.355880   2 C  s         
 
 Vector   73  Occ=0.000000D+00  E= 1.178962D+01
              MO Center=  5.8D-01,  9.4D-01, -4.2D-02, r^2= 9.5D-01
   Bfn.  Coefficient  Atom+Function         Bfn.  Coefficient  Atom+Function  
  ----- ------------  ---------------      ----- ------------  ---------------
    19     -2.568820   2 C  s                18      2.472308   2 C  s         
    20      2.369194   2 C  s                21     -2.219937   2 C  s         
     4      2.205837   1 C  s                 3     -2.109425   1 C  s         
     5     -2.070797   1 C  s                 6      1.928788   1 C  s         
    17     -1.291004   2 C  s                 2      1.098889   1 C  s         
 
 Vector   74  Occ=0.000000D+00  E= 2.189804D+01
              MO Center= -9.2D-01, -2.2D-01,  8.9D-02, r^2= 2.0D-01
   Bfn.  Coefficient  Atom+Function         Bfn.  Coefficient  Atom+Function  
  ----- ------------  ---------------      ----- ------------  ---------------
    36      3.321265   4 O  s                37     -3.218365   4 O  s         
    38      2.602234   4 O  s                35     -1.741740   4 O  s         
    39     -1.668316   4 O  s                14     -0.590040   1 C  py        
    29      0.559415   2 C  py                6      0.555684   1 C  s         
    60      0.520204   7 C  s                21     -0.465530   2 C  s         
 
 Vector   75  Occ=0.000000D+00  E= 6.234774D+01
              MO Center=  3.8D-01,  9.9D-01, -2.1D-02, r^2= 5.2D-01
   Bfn.  Coefficient  Atom+Function         Bfn.  Coefficient  Atom+Function  
  ----- ------------  ---------------      ----- ------------  ---------------
     2      2.236554   1 C  s                17      1.880601   2 C  s         
     3     -1.683738   1 C  s                18     -1.410630   2 C  s         
     1     -1.329590   1 C  s                16     -1.119961   2 C  s         
     4      1.084332   1 C  s                19      0.900755   2 C  s         
     5     -0.823631   1 C  s                20     -0.672897   2 C  s         
 
 Vector   76  Occ=0.000000D+00  E= 6.254361D+01
              MO Center= -1.7D-01, -1.4D+00, -8.0D-03, r^2= 2.2D-01
   Bfn.  Coefficient  Atom+Function         Bfn.  Coefficient  Atom+Function  
  ----- ------------  ---------------      ----- ------------  ---------------
    56      2.913420   7 C  s                57     -2.218662   7 C  s         
    55     -1.722939   7 C  s                58      1.481085   7 C  s         
    59     -1.213448   7 C  s                60      0.775170   7 C  s         
     2      0.363688   1 C  s                 3     -0.276888   1 C  s         
    17     -0.246603   2 C  s                 1     -0.215074   1 C  s         
 
 Vector   77  Occ=0.000000D+00  E= 6.273235D+01
              MO Center=  6.0D-01,  9.6D-01, -4.3D-02, r^2= 6.4D-01
   Bfn.  Coefficient  Atom+Function         Bfn.  Coefficient  Atom+Function  
  ----- ------------  ---------------      ----- ------------  ---------------
    17      2.249331   2 C  s                 2     -1.876846   1 C  s         
    18     -1.722532   2 C  s                 3      1.442073   1 C  s         
    16     -1.326208   2 C  s                19      1.165757   2 C  s         
     1      1.104709   1 C  s                20     -1.018185   2 C  s         
     4     -0.984317   1 C  s                21      0.949073   2 C  s         
 
 Vector   78  Occ=0.000000D+00  E= 1.178396D+02
              MO Center= -9.2D-01, -2.2D-01,  8.9D-02, r^2= 4.5D-02
   Bfn.  Coefficient  Atom+Function         Bfn.  Coefficient  Atom+Function  
  ----- ------------  ---------------      ----- ------------  ---------------
    35      2.969427   4 O  s                36     -2.273140   4 O  s         
    34     -1.756155   4 O  s                37      1.436225   4 O  s         
    38     -1.097719   4 O  s                39      0.707968   4 O  s         
    14      0.252442   1 C  py                6     -0.242100   1 C  s         
    29     -0.239790   2 C  py               60     -0.227299   7 C  s         
 

 center of mass
 --------------
 x =  -0.08232397 y =   0.04310878 z =   0.00906944

 moments of inertia (a.u.)
 ------------------
         253.103958807732         -80.204834201331          11.854331377594
         -80.204834201331         144.556275080148           3.782888578011
          11.854331377594           3.782888578011         383.756174079422
 
     Multipole analysis of the density
     ---------------------------------
 
     L   x y z        total         alpha         beta         nuclear
     -   - - -        -----         -----         ----         -------
     0   0 0 0     -0.000000    -16.000000    -16.000000     32.000000
 
     1   1 0 0      0.358862      0.179431      0.179431      0.000000
     1   0 1 0     -0.331853     -0.165927     -0.165927      0.000000
     1   0 0 1     -0.042076     -0.021038     -0.021038      0.000000
 
     2   2 0 0    -20.042457    -51.573609    -51.573609     83.104761
     2   1 1 0     -0.558330    -22.867355    -22.867355     45.176379
     2   1 0 1     -0.062204      3.463953      3.463953     -6.990111
     2   0 2 0    -15.559340    -84.874702    -84.874702    154.190064
     2   0 1 1      0.146198      1.021315      1.021315     -1.896432
     2   0 0 2    -20.548736    -13.499395    -13.499395      6.450054
 

 Task  times  cpu:        1.8s     wall:        1.9s
 
 
                                NWChem Input Module
                                -------------------
 
 
 Summary of allocated global arrays
-----------------------------------
  No active global arrays



                         GA Statistics for process    0
                         ------------------------------

       create   destroy   get      put      acc     scatter   gather  read&inc
calls:  168      168     1.03e+04 1390     7362        0        0      385     
number of processes/call 1.07e+01 3.76e+01 7.36e+00 0.00e+00 0.00e+00
bytes total:             1.84e+07 2.46e+06 9.75e+06 0.00e+00 0.00e+00 3.08e+03
bytes remote:            1.47e+07 1.38e+06 8.13e+06 0.00e+00 0.00e+00 0.00e+00
Max memory consumed for GA by this process: 264160 bytes
 
 
 
                                     CITATION
                                     --------
                Please cite the following reference when publishing
                           results obtained with NWChem:
 
          E. Apr, E. J. Bylaska, W. A. de Jong, N. Govind, K. Kowalski,
       T. P. Straatsma, M. Valiev, H. J. J. van Dam, Y. Alexeev, J. Anchell,
       V. Anisimov, F. W. Aquino, R. Atta-Fynn, J. Autschbach, N. P. Bauman,
     J. C. Becca, D. E. Bernholdt, K. Bhaskaran-Nair, S. Bogatko, P. Borowski,
        J. Boschen, J. Brabec, A. Bruner, E. Caut, Y. Chen, G. N. Chuev,
      C. J. Cramer, J. Daily, M. J. O. Deegan, T. H. Dunning Jr., M. Dupuis,
   K. G. Dyall, G. I. Fann, S. A. Fischer, A. Fonari, H. Frchtl, L. Gagliardi,
      J. Garza, N. Gawande, S. Ghosh, K. Glaesemann, A. W. Gtz, J. Hammond,
       V. Helms, E. D. Hermes, K. Hirao, S. Hirata, M. Jacquelin, L. Jensen,
   B. G. Johnson, H. Jnsson, R. A. Kendall, M. Klemm, R. Kobayashi, V. Konkov,
      S. Krishnamoorthy, M. Krishnan, Z. Lin, R. D. Lins, R. J. Littlefield,
      A. J. Logsdail, K. Lopata, W. Ma, A. V. Marenich, J. Martin del Campo,
   D. Mejia-Rodriguez, J. E. Moore, J. M. Mullin, T. Nakajima, D. R. Nascimento,
    J. A. Nichols, P. J. Nichols, J. Nieplocha, A. Otero-de-la-Roza, B. Palmer,
    A. Panyala, T. Pirojsirikul, B. Peng, R. Peverati, J. Pittner, L. Pollack,
   R. M. Richard, P. Sadayappan, G. C. Schatz, W. A. Shelton, D. W. Silverstein,
   D. M. A. Smith, T. A. Soares, D. Song, M. Swart, H. L. Taylor, G. S. Thomas,
            V. Tipparaju, D. G. Truhlar, K. Tsemekhman, T. Van Voorhis,
     . Vzquez-Mayagoitia, P. Verma, O. Villa, A. Vishnu, K. D. Vogiatzis,
        D. Wang, J. H. Weare, M. J. Williamson, T. L. Windus, K. Woliski,
        A. T. Wong, Q. Wu, C. Yang, Q. Yu, M. Zacharias, Z. Zhang, Y. Zhao,
                                and R. J. Harrison
                        "NWChem: Past, present, and future
                         J. Chem. Phys. 152, 184102 (2020)
                               doi:10.1063/5.0004997
 
                                      AUTHORS
                                      -------
     E. Apra, E. J. Bylaska, N. Govind, K. Kowalski, M. Valiev, W. A. de Jong,
      T. P. Straatsma, H. J. J. van Dam, D. Wang, T. L. Windus, N. P. Bauman,
       A. Panyala, J. Hammond, J. Autschbach, K. Bhaskaran-Nair, J. Brabec,
    K. Lopata, S. A. Fischer, S. Krishnamoorthy, M. Jacquelin, W. Ma, M. Klemm,
       O. Villa, Y. Chen, V. Anisimov, F. Aquino, S. Hirata, M. T. Hackler,
           Eric Hermes, L. Jensen, J. E. Moore, J. C. Becca, V. Konjkov,
            D. Mejia-Rodriguez, T. Risthaus, M. Malagoli, A. Marenich,
   A. Otero-de-la-Roza, J. Mullin, P. Nichols, R. Peverati, J. Pittner, Y. Zhao,
        P.-D. Fan, A. Fonari, M. J. Williamson, R. J. Harrison, J. R. Rehr,
      M. Dupuis, D. Silverstein, D. M. A. Smith, J. Nieplocha, V. Tipparaju,
      M. Krishnan, B. E. Van Kuiken, A. Vazquez-Mayagoitia, M. Swart, Q. Wu,
   T. Van Voorhis, A. A. Auer, M. Nooijen, L. D. Crosby, E. Brown, G. Cisneros,
     G. I. Fann, H. Fruchtl, J. Garza, K. Hirao, R. A. Kendall, J. A. Nichols,
       K. Tsemekhman, K. Wolinski, J. Anchell, D. E. Bernholdt, P. Borowski,
       T. Clark, D. Clerc, H. Dachsel, M. J. O. Deegan, K. Dyall, D. Elwood,
      E. Glendening, M. Gutowski, A. C. Hess, J. Jaffe, B. G. Johnson, J. Ju,
        R. Kobayashi, R. Kutteh, Z. Lin, R. Littlefield, X. Long, B. Meng,
      T. Nakajima, S. Niu, L. Pollack, M. Rosing, K. Glaesemann, G. Sandrone,
      M. Stave, H. Taylor, G. Thomas, J. H. van Lenthe, A. T. Wong, Z. Zhang.

 Total times  cpu:        1.8s     wall:        2.0s
