 
             Northwest Computational Chemistry Package (NWChem) 7.0.0
             --------------------------------------------------------
 
 
                    Environmental Molecular Sciences Laboratory
                       Pacific Northwest National Laboratory
                                Richland, WA 99352
 
                              Copyright (c) 1994-2020
                       Pacific Northwest National Laboratory
                            Battelle Memorial Institute
 
             NWChem is an open-source computational chemistry package
                        distributed under the terms of the
                      Educational Community License (ECL) 2.0
             A copy of the license is included with this distribution
                              in the LICENSE.TXT file
 
                                  ACKNOWLEDGMENT
                                  --------------

            This software and its documentation were developed at the
            EMSL at Pacific Northwest National Laboratory, a multiprogram
            national laboratory, operated for the U.S. Department of Energy
            by Battelle under Contract Number DE-AC05-76RL01830. Support
            for this work was provided by the Department of Energy Office
            of Biological and Environmental Research, Office of Basic
            Energy Sciences, and the Office of Advanced Scientific Computing.


                                NWChem Input Module
                                -------------------
 
 
 Summary of "ao basis" -> "" (spherical)
 ------------------------------------------------------------------------------
       Tag                 Description            Shells   Functions and Types
 ---------------- ------------------------------  ------  ---------------------
 *                        ahlrichs_vtz                on all atoms 



 Scaling coordinates for geometry "geometry" by  1.889725989
 (inverse scale =  0.529177249)

 
 
                             Geometry "geometry" -> ""
                             -------------------------
 
 Output coordinates in angstroms (scale by  1.889725989 to convert to a.u.)
 
  No.       Tag          Charge          X              Y              Z
 ---- ---------------- ---------- -------------- -------------- --------------
    1 C                    6.0000     1.66318888    -1.59036989     0.70311288
    2 H                    1.0000     1.64252999    -2.32009213     1.52717088
    3 H                    1.0000     2.44329495    -0.85108457     0.92785158
    4 H                    1.0000     1.93759252    -2.12740724    -0.21469979
    5 C                    6.0000     0.27763053    -0.94710130     0.60064094
    6 H                    1.0000    -0.49002374    -1.70271068     0.37966349
    7 H                    1.0000     0.00503378    -0.43221703     1.53222774
    8 C                    6.0000     0.30618379     0.15785424    -0.58059386
    9 H                    1.0000     1.04614266     0.92508152    -0.32558856
   10 H                    1.0000     0.58406396    -0.38580146    -1.49596277
   11 C                    6.0000    -1.02103248     0.69099515    -0.69526382
   12 H                    1.0000    -1.83407556     0.13196869    -1.17911899
   13 O                    8.0000    -1.30500911     1.84285676    -0.14202781
   14 H                    1.0000    -2.25030993     2.15113947    -0.18269776
 
      Atomic Mass 
      ----------- 
 
      C                 12.000000
      H                  1.007825
      O                 15.994910
 

 Effective nuclear repulsion energy (a.u.)     178.2771304169

            Nuclear Dipole moment (a.u.) 
            ----------------------------
        X                 Y               Z
 ---------------- ---------------- ----------------
     0.0000000000    -0.0000000000     0.0000000000
 
 
            XYZ format geometry
            -------------------
    14
 geometry
 C                     1.66318888    -1.59036989     0.70311288
 H                     1.64252999    -2.32009213     1.52717088
 H                     2.44329495    -0.85108457     0.92785158
 H                     1.93759252    -2.12740724    -0.21469979
 C                     0.27763053    -0.94710130     0.60064094
 H                    -0.49002374    -1.70271068     0.37966349
 H                     0.00503378    -0.43221703     1.53222774
 C                     0.30618379     0.15785424    -0.58059386
 H                     1.04614266     0.92508152    -0.32558856
 H                     0.58406396    -0.38580146    -1.49596277
 C                    -1.02103248     0.69099515    -0.69526382
 H                    -1.83407556     0.13196869    -1.17911899
 O                    -1.30500911     1.84285676    -0.14202781
 H                    -2.25030993     2.15113947    -0.18269776
 
 ==============================================================================
                                internuclear distances
 ------------------------------------------------------------------------------
       center one      |      center two      | atomic units |  angstroms
 ------------------------------------------------------------------------------
    2 H                |   1 C                |     2.08041  |     1.10091
    3 H                |   1 C                |     2.07493  |     1.09801
    4 H                |   1 C                |     2.07533  |     1.09822
    5 C                |   1 C                |     2.89324  |     1.53103
    6 H                |   5 C                |     2.07790  |     1.09958
    7 H                |   5 C                |     2.07635  |     1.09876
    8 C                |   5 C                |     3.05707  |     1.61773
    9 H                |   8 C                |     2.07113  |     1.09599
   10 H                |   8 C                |     2.07928  |     1.10031
   11 C                |   8 C                |     2.71154  |     1.43488
   12 H                |  11 C                |     2.07669  |     1.09894
   13 O                |  11 C                |     2.47366  |     1.30901
   14 H                |  13 O                |     1.88053  |     0.99513
 ------------------------------------------------------------------------------
                         number of included internuclear distances:         13
 ==============================================================================



 ==============================================================================
                                 internuclear angles
 ------------------------------------------------------------------------------
        center 1       |       center 2       |       center 3       |  degrees
 ------------------------------------------------------------------------------
    2 H                |   1 C                |   3 H                |   107.84
    2 H                |   1 C                |   4 H                |   107.83
    2 H                |   1 C                |   5 C                |   108.16
    3 H                |   1 C                |   4 H                |   108.83
    3 H                |   1 C                |   5 C                |   111.95
    4 H                |   1 C                |   5 C                |   112.06
    1 C                |   5 C                |   6 H                |   110.89
    1 C                |   5 C                |   7 H                |   111.39
    1 C                |   5 C                |   8 C                |   108.66
    6 H                |   5 C                |   7 H                |   108.61
    6 H                |   5 C                |   8 C                |   109.57
    7 H                |   5 C                |   8 C                |   107.66
    5 C                |   8 C                |   9 H                |   108.67
    5 C                |   8 C                |  10 H                |   105.93
    5 C                |   8 C                |  11 C                |   107.21
    9 H                |   8 C                |  10 H                |   111.65
    9 H                |   8 C                |  11 C                |   112.52
   10 H                |   8 C                |  11 C                |   110.53
    8 C                |  11 C                |  12 H                |   122.04
    8 C                |  11 C                |  13 O                |   119.59
   12 H                |  11 C                |  13 O                |   118.24
   11 C                |  13 O                |  14 H                |   117.48
 ------------------------------------------------------------------------------
                            number of included internuclear angles:         22
 ==============================================================================



                              Aldehyde and Ketone set
                              -----------------------
 
                                 NWChem DFT Module
                                 -----------------
 
 
                              Aldehyde and Ketone set
 
 
                      Basis "ao basis" -> "ao basis" (spherical)
                      -----
  C (Carbon)
  ----------
            Exponent  Coefficients 
       -------------- ---------------------------------------------------------
  1 S  8.50603840E+03  0.000534
  1 S  1.27573290E+03  0.004125
  1 S  2.90311870E+02  0.021171
  1 S  8.20562000E+01  0.082418
  1 S  2.64796410E+01  0.240129
 
  2 S  9.24145850E+00  1.000000
 
  3 S  3.36435300E+00  1.000000
 
  4 S  8.71741640E-01  1.000000
 
  5 S  3.63523520E-01  1.000000
 
  6 S  1.28731350E-01  1.000000
 
  7 P  3.47094960E+01  0.005330
  7 P  7.95908830E+00  0.035866
  7 P  2.37869720E+00  0.142003
  7 P  8.15400650E-01  0.342031
 
  8 P  2.89537850E-01  1.000000
 
  9 P  1.00847540E-01  1.000000
 
  H (Hydrogen)
  ------------
            Exponent  Coefficients 
       -------------- ---------------------------------------------------------
  1 S  3.40613410E+01  0.006025
  1 S  5.12357460E+00  0.045021
  1 S  1.16466260E+00  0.201897
 
  2 S  3.27230410E-01  1.000000
 
  3 S  1.03072410E-01  1.000000
 
  O (Oxygen)
  ----------
            Exponent  Coefficients 
       -------------- ---------------------------------------------------------
  1 S  1.59026475E+04  0.000515
  1 S  2.38495378E+03  0.003982
  1 S  5.42719572E+02  0.020477
  1 S  1.53404079E+02  0.080262
  1 S  4.95457161E+01  0.237668
 
  2 S  1.73396499E+01  1.000000
 
  3 S  6.33033553E+00  1.000000
 
  4 S  1.69958822E+00  1.000000
 
  5 S  6.89544913E-01  1.000000
 
  6 S  2.39360282E-01  1.000000
 
  7 P  6.32705240E+01  0.006071
  7 P  1.46233123E+01  0.041948
  7 P  4.44895180E+00  0.161569
  7 P  1.52815132E+00  0.356828
 
  8 P  5.29973159E-01  1.000000
 
  9 P  1.75094460E-01  1.000000
 


 Summary of "ao basis" -> "ao basis" (spherical)
 ------------------------------------------------------------------------------
       Tag                 Description            Shells   Functions and Types
 ---------------- ------------------------------  ------  ---------------------
 C                        ahlrichs vtz               9       15   6s3p
 H                        ahlrichs vtz               3        3   3s
 O                        ahlrichs vtz               9       15   6s3p




 Summary of "ao basis" -> "ao basis" (spherical)
 ------------------------------------------------------------------------------
       Tag                 Description            Shells   Functions and Types
 ---------------- ------------------------------  ------  ---------------------
 C                        ahlrichs vtz               9       15   6s3p
 H                        ahlrichs vtz               3        3   3s
 O                        ahlrichs vtz               9       15   6s3p


  Caching 1-el integrals 
 
            General Information
            -------------------
          SCF calculation type: DFT
          Wavefunction type:  spin polarized.
          No. of atoms     :    14
          No. of electrons :    41
           Alpha electrons :    21
            Beta electrons :    20
          Charge           :     0
          Spin multiplicity:     2
          Use of symmetry is: off; symmetry adaption is: off
          Maximum number of iterations: ***
          This is a Direct SCF calculation.
          AO basis - number of functions:   102
                     number of shells:    72
          Convergence on energy requested:  1.00D-08
          Convergence on density requested:  1.00D-07
          Convergence on gradient requested:  1.00D-06
 
              XC Information
              --------------
                        PBE96 Method XC Functional
          PerdewBurkeErnzerhof Exchange Functional  1.000          
            Perdew 1991 LDA Correlation Functional  1.000 local    
           PerdewBurkeErnz. Correlation Functional  1.000 non-local
 
             Grid Information
             ----------------
          Grid used for XC integration:  fine      
          Radial quadrature: Mura-Knowles        
          Angular quadrature: Lebedev. 
          Tag              B.-S. Rad. Rad. Pts. Rad. Cut. Ang. Pts.
          ---              ---------- --------- --------- ---------
          C                   0.70       70          14.0       590
          H                   0.35       60          14.0       590
          O                   0.60       70          13.0       590
          Grid pruning is: on 
          Number of quadrature shells:   890
          Spatial weights used:  Erf1
 
          Convergence Information
          -----------------------
          Convergence aids based upon iterative change in 
          total energy or number of iterations. 
          Levelshifting, if invoked, occurs when the 
          HOMO/LUMO gap drops below (HL_TOL):  1.00D-02
          DIIS, if invoked, will attempt to extrapolate 
          using up to (NFOCK): 10 stored Fock matrices.

                    Damping( 0%)  Levelshifting(0.5)       DIIS
                  --------------- ------------------- ---------------
          dE  on:    start            ASAP                start   
          dE off:    2 iters        *** iters           *** iters 

 
      Screening Tolerance Information
      -------------------------------
          Density screening/tol_rho:  1.00D-12
          AO Gaussian exp screening on grid/accAOfunc:  18
          CD Gaussian exp screening on grid/accCDfunc:  20
          XC Gaussian exp screening on grid/accXCfunc:  20
          Schwarz screening/accCoul:  1.00D-12

      Dispersion Parameters
      ---------------------

           DFT-D3BJ Model   
          s6 scale factor  :        1.000000000000
          s8 scale factor  :        0.787500000000
          a1 parameter     :        0.428900000000
          a2 parameter     :        4.440700000000
              vdW contrib  :       -0.009337468875


 Forcing the number of linearly dependent vectors to be  0
 
      Superposition of Atomic Density Guess
      -------------------------------------
 
 Sum of atomic energies:        -229.96677482
   Time after variat. SCF:      0.2
   Time prior to 1st pass:      0.2

 Grid_pts file          = ./03_CH3CH2CH2CHOH.gridpts.00
 Record size in doubles =  12289        No. of grid_pts per rec  =   3070
 Max. records in memory =     14        Max. recs in file   =  67550051


           Memory utilization after 1st SCF pass: 
           Heap Space remaining (MW):        0.00                 351
          Stack Space remaining (MW):      288.36           288356932

   convergence    iter        energy       DeltaE   RMS-Dens  Diis-err    time
 ---------------- ----- ----------------- --------- --------- ---------  ------
 d= 0,ls=0.0,diis     1   -233.3935709015 -4.12D+02  1.46D-02  1.51D+01     0.4
                                                     1.30D-02  1.37D+01
 d= 0,ls=0.0,diis     2   -232.4833646335  9.10D-01  4.23D-02  4.49D-01     0.8
                                                     1.16D-02  4.32D-01
 d= 0,ls=0.5,diis     3   -231.9429844255  5.40D-01  5.78D-03  1.20D+00     1.2
                                                     4.23D-03  1.23D+00
 d= 0,ls=0.5,diis     4   -232.4434717846 -5.00D-01  4.14D-03  2.59D-01     1.5
                                                     2.58D-03  2.75D-01
 d= 0,ls=0.5,diis     5   -232.5749160240 -1.31D-01  3.56D-03  6.10D-02     1.9
                                                     1.54D-03  6.38D-02
 d= 0,ls=0.5,diis     6   -232.6110344432 -3.61D-02  3.20D-03  1.36D-02     2.2
                                                     7.78D-04  1.08D-02
 d= 0,ls=0.5,diis     7   -232.6250532217 -1.40D-02  3.56D-03  6.14D-03     2.6
                                                     3.99D-04  1.70D-03
 d= 0,ls=0.5,diis     8   -232.6363417670 -1.13D-02  4.12D-03  5.13D-03     2.9
                                                     2.17D-04  2.28D-04
 d= 0,ls=0.5,diis     9   -232.6477884193 -1.14D-02  4.45D-03  5.74D-03     3.3
                                                     1.30D-04  1.56D-03
 d= 0,ls=0.5,diis    10   -232.6584693837 -1.07D-02  4.27D-03  7.72D-03     3.6
                                                     1.18D-04  5.21D-03
 d= 0,ls=0.5,diis    11   -232.6679378666 -9.47D-03  3.88D-03  9.79D-03     4.0
                                                     1.66D-04  9.00D-03
 d= 0,ls=0.5,diis    12   -232.6763860511 -8.45D-03  3.34D-03  1.09D-02     4.3
                                                     1.14D-04  1.13D-02
 d= 0,ls=0.5,diis    13   -232.6826323665 -6.25D-03  2.72D-03  1.25D-02     4.7
                                                     1.17D-04  1.40D-02
 d= 0,ls=0.5,diis    14   -232.6875649136 -4.93D-03  2.10D-03  1.35D-02     5.0
                                                     2.53D-04  1.56D-02
 d= 0,ls=0.5,diis    15   -232.6931470558 -5.58D-03  1.63D-03  1.11D-02     5.4
                                                     4.28D-04  1.29D-02
 d= 0,ls=0.5,diis    16   -232.6993106578 -6.16D-03  1.32D-03  6.46D-03     5.7
                                                     8.46D-04  7.27D-03
 d= 0,ls=0.5,diis    17   -232.7053225978 -6.01D-03  1.11D-03  1.12D-03     6.1
                                                     5.71D-04  4.68D-04
 d= 0,ls=0.5,diis    18   -232.7067110603 -1.39D-03  8.86D-04  1.50D-03     6.4
                                                     3.69D-04  8.10D-04
 d= 0,ls=0.5,diis    19   -232.7068660364 -1.55D-04  7.49D-04  2.78D-03     6.8
                                                     1.41D-04  2.39D-03
 d= 0,ls=0.5,diis    20   -232.7075585688 -6.93D-04  6.50D-04  2.68D-03     7.1
                                                     7.06D-05  2.44D-03
 d= 0,ls=0.5,diis    21   -232.7082955910 -7.37D-04  5.79D-04  2.32D-03     7.5
                                                     8.41D-05  2.19D-03
 d= 0,ls=0.5,diis    22   -232.7092009099 -9.05D-04  5.12D-04  1.53D-03     7.8
                                                     1.12D-04  1.44D-03
 d= 0,ls=0.5,diis    23   -232.7099914911 -7.91D-04  4.43D-04  8.04D-04     8.2
                                                     1.06D-04  7.17D-04
 d= 0,ls=0.5,diis    24   -232.7105334939 -5.42D-04  3.80D-04  3.70D-04     8.5
                                                     8.03D-05  2.82D-04
 d= 0,ls=0.5,diis    25   -232.7108566296 -3.23D-04  3.19D-04  1.80D-04     8.9
                                                     3.95D-05  1.04D-04
 d= 0,ls=0.5,diis    26   -232.7110425419 -1.86D-04  2.72D-04  1.13D-04     9.2
                                                     2.88D-05  5.58D-05
 d= 0,ls=0.5,diis    27   -232.7111712658 -1.29D-04  2.32D-04  7.78D-05     9.6
                                                     1.71D-05  3.37D-05
 d= 0,ls=0.5,diis    28   -232.7112627894 -9.15D-05  1.98D-04  5.53D-05     9.9
                                                     1.63D-05  2.20D-05
 d= 0,ls=0.5,diis    29   -232.7113307993 -6.80D-05  1.69D-04  3.75D-05    10.3
                                                     1.33D-05  1.18D-05
 d= 0,ls=0.5,diis    30   -232.7113796368 -4.88D-05  1.44D-04  2.59D-05    10.6
                                                     7.97D-06  6.29D-06
 d= 0,ls=0.5,diis    31   -232.7114146463 -3.50D-05  1.23D-04  1.82D-05    11.0
                                                     6.40D-06  3.55D-06
 d= 0,ls=0.5,diis    32   -232.7114399505 -2.53D-05  1.05D-04  1.30D-05    11.3
                                                     4.18D-06  2.14D-06
 d= 0,ls=0.5,diis    33   -232.7114583115 -1.84D-05  9.00D-05  9.35D-06    11.7
                                                     3.04D-06  1.41D-06
 d= 0,ls=0.5,diis    34   -232.7114717471 -1.34D-05  7.69D-05  6.71D-06    12.0
                                                     1.88D-06  9.40D-07
 d= 0,ls=0.5,diis    35   -232.7114815312 -9.78D-06  6.59D-05  4.89D-06    12.4
                                                     1.61D-06  6.88D-07
 d= 0,ls=0.5,diis    36   -232.7114887061 -7.17D-06  5.67D-05  3.59D-06    12.7
                                                     1.75D-06  4.74D-07
 d= 0,ls=0.5,diis    37   -232.7114939668 -5.26D-06  4.85D-05  2.62D-06    13.1
                                                     1.03D-06  3.87D-07
 d= 0,ls=0.5,diis    38   -232.7114978247 -3.86D-06  4.15D-05  1.93D-06    13.4
                                                     7.12D-07  2.99D-07
 d= 0,ls=0.5,diis    39   -232.7115006668 -2.84D-06  3.56D-05  1.40D-06    13.8
                                                     5.33D-07  2.19D-07
 d= 0,ls=0.5,diis    40   -232.7115027529 -2.09D-06  3.05D-05  1.02D-06    14.1
                                                     3.30D-07  1.60D-07
 d= 0,ls=0.5,diis    41   -232.7115042812 -1.53D-06  2.62D-05  7.48D-07    14.5
                                                     6.13D-07  1.18D-07
 d= 0,ls=0.5,diis    42   -232.7115054038 -1.12D-06  2.24D-05  5.47D-07    14.8
                                                     3.36D-07  8.46D-08
 d= 0,ls=0.5,diis    43   -232.7115062264 -8.23D-07  1.92D-05  3.98D-07    15.2
                                                     1.67D-07  5.78D-08
 d= 0,ls=0.5,diis    44   -232.7115068272 -6.01D-07  1.64D-05  2.93D-07    15.5
                                                     2.01D-07  4.35D-08
 d= 0,ls=0.5,diis    45   -232.7115072693 -4.42D-07  1.41D-05  2.14D-07    15.9
                                                     1.71D-07  3.07D-08
 d= 0,ls=0.5,diis    46   -232.7115075934 -3.24D-07  1.20D-05  1.56D-07    16.2
                                                     8.61D-08  2.18D-08
 d= 0,ls=0.5,diis    47   -232.7115078308 -2.37D-07  1.03D-05  1.15D-07    16.6
                                                     7.05D-08  1.59D-08
 d= 0,ls=0.5,diis    48   -232.7115080047 -1.74D-07  8.83D-06  8.40D-08    16.9
                                                     5.43D-08  1.16D-08
 d= 0,ls=0.5,diis    49   -232.7115081322 -1.27D-07  7.56D-06  6.16D-08    17.3
                                                     4.32D-08  8.46D-09
 d= 0,ls=0.5,diis    50   -232.7115082256 -9.35D-08  6.47D-06  4.51D-08    17.6
                                                     4.26D-08  6.08D-09
 d= 0,ls=0.5,diis    51   -232.7115082941 -6.85D-08  5.54D-06  3.31D-08    17.9
                                                     2.20D-08  4.44D-09
 d= 0,ls=0.5,diis    52   -232.7115083443 -5.02D-08  4.74D-06  2.42D-08    18.3
                                                     2.93D-08  3.21D-09
 d= 0,ls=0.5,diis    53   -232.7115083811 -3.68D-08  4.06D-06  1.77D-08    18.7
                                                     1.64D-08  2.34D-09
 d= 0,ls=0.5,diis    54   -232.7115084081 -2.70D-08  3.48D-06  1.30D-08    19.0
                                                     1.67D-08  1.73D-09
 d= 0,ls=0.5,diis    55   -232.7115084279 -1.98D-08  2.98D-06  9.56D-09    19.3
                                                     1.04D-08  1.29D-09
 d= 0,ls=0.5,diis    56   -232.7115084424 -1.45D-08  2.55D-06  7.00D-09    19.7
                                                     7.72D-09  9.41D-10
 d= 0,ls=0.5,diis    57   -232.7115084530 -1.06D-08  2.18D-06  5.13D-09    20.0
                                                     4.56D-09  6.92D-10
 d= 0,ls=0.5,diis    58   -232.7115084609 -7.81D-09  1.87D-06  3.76D-09    20.4
                                                     5.83D-09  5.11D-10
 d= 0,ls=0.5,diis    59   -232.7115084666 -5.73D-09  1.60D-06  2.76D-09    20.7
                                                     4.03D-09  3.75D-10
 d= 0,ls=0.5,diis    60   -232.7115084708 -4.20D-09  1.37D-06  2.02D-09    21.1
                                                     2.70D-09  2.74D-10
 d= 0,ls=0.5,diis    61   -232.7115084739 -3.08D-09  1.17D-06  1.48D-09    21.4
                                                     2.35D-09  2.00D-10
 d= 0,ls=0.5,diis    62   -232.7115084761 -2.26D-09  1.01D-06  1.09D-09    21.8
                                                     1.43D-09  1.46D-10
 d= 0,ls=0.5,diis    63   -232.7115084778 -1.65D-09  8.61D-07  7.97D-10    22.1
                                                     1.76D-09  1.07D-10
 d= 0,ls=0.5,diis    64   -232.7115084790 -1.21D-09  7.37D-07  5.84D-10    22.5
                                                     1.19D-09  7.81D-11
 d= 0,ls=0.5,diis    65   -232.7115084799 -8.90D-10  6.31D-07  4.29D-10    22.8
                                                     8.64D-10  5.75D-11
  Singularity in Pulay matrix. Error and Fock matrices removed. 
 d= 0,ls=0.5,diis    66   -232.7115084805 -6.52D-10  5.40D-07  3.14D-10    23.2
                                                     7.55D-10  4.22D-11
  Singularity in Pulay matrix. Error and Fock matrices removed. 
  Singularity in Pulay matrix. Error and Fock matrices removed. 
  Singularity in Pulay matrix. Error and Fock matrices removed. 
  Singularity in Pulay matrix. Error and Fock matrices removed. 
  Singularity in Pulay matrix. Error and Fock matrices removed. 
 d= 0,ls=0.5,diis    67   -232.7115084810 -4.78D-10  4.63D-07  2.30D-10    23.5
                                                     6.17D-10  3.09D-11
  Singularity in Pulay matrix. Error and Fock matrices removed. 
 d= 0,ls=0.5,diis    68   -232.7115084814 -3.51D-10  3.96D-07  1.69D-10    23.9
                                                     1.05D-09  2.29D-11
  Singularity in Pulay matrix. Error and Fock matrices removed. 
 d= 0,ls=0.5,diis    69   -232.7115084816 -2.57D-10  3.39D-07  1.24D-10    24.2
                                                     6.08D-10  1.66D-11
 d= 0,ls=0.5,diis    70   -232.7115084818 -1.89D-10  2.91D-07  9.08D-11    24.6
                                                     5.60D-10  1.22D-11
 d= 0,ls=0.5,diis    71   -232.7115084819 -1.38D-10  2.49D-07  6.66D-11    24.9
                                                     2.88D-10  8.95D-12
 d= 0,ls=0.5,diis    72   -232.7115084820 -1.01D-10  2.13D-07  4.88D-11    25.3
                                                     2.02D-10  6.56D-12
  Singularity in Pulay matrix. Error and Fock matrices removed. 
  Singularity in Pulay matrix. Error and Fock matrices removed. 
  Singularity in Pulay matrix. Error and Fock matrices removed. 
  Singularity in Pulay matrix. Error and Fock matrices removed. 
  Singularity in Pulay matrix. Error and Fock matrices removed. 
  Singularity in Pulay matrix. Error and Fock matrices removed. 
 d= 0,ls=0.5,diis    73   -232.7115084821 -7.42D-11  1.82D-07  3.58D-11    25.6
                                                     3.64D-10  4.82D-12
  Singularity in Pulay matrix. Error and Fock matrices removed. 
 d= 0,ls=0.5,diis    74   -232.7115084822 -5.46D-11  1.56D-07  2.63D-11    26.0
                                                     3.04D-10  3.54D-12
 d= 0,ls=0.5,diis    75   -232.7115084822 -4.02D-11  1.34D-07  1.92D-11    26.3
                                                     1.45D-10  2.59D-12
  Singularity in Pulay matrix. Error and Fock matrices removed. 
 d= 0,ls=0.5,diis    76   -232.7115084822 -2.92D-11  1.15D-07  1.41D-11    26.7
                                                     2.81D-10  1.90D-12
 d= 0,ls=0.5,diis    77   -232.7115084823 -2.14D-11  9.81D-08  1.03D-11    27.0
                                                     8.38D-11  1.39D-12


         Total DFT energy =     -232.711508482278
      One electron energy =     -667.513745958097
           Coulomb energy =      289.846376701678
          Exchange energy =      -31.982782920808
       Correlation energy =       -1.329149253032
 Nuclear repulsion energy =      178.277130416856

    Dispersion correction =       -0.009337468875

 Numeric. integr. density =       41.000001136310

     Total iterative time =     27.2s


 
                    DFT Final Alpha Molecular Orbital Analysis
                    ------------------------------------------
 
 Vector    1  Occ=1.000000D+00  E=-1.878876D+01
              MO Center= -1.3D+00,  1.8D+00, -1.4D-01, r^2= 1.5D-02
   Bfn.  Coefficient  Atom+Function         Bfn.  Coefficient  Atom+Function  
  ----- ------------  ---------------      ----- ------------  ---------------
    86      0.424529  13 O  s                87      0.366261  13 O  s         
    85      0.299503  13 O  s                88      0.055505  13 O  s         
 
 Vector    2  Occ=1.000000D+00  E=-9.919322D+00
              MO Center= -1.0D+00,  6.9D-01, -7.0D-01, r^2= 2.8D-02
   Bfn.  Coefficient  Atom+Function         Bfn.  Coefficient  Atom+Function  
  ----- ------------  ---------------      ----- ------------  ---------------
    68      0.423908  11 C  s                69      0.359616  11 C  s         
    67      0.308690  11 C  s                70      0.058348  11 C  s         
 
 Vector    3  Occ=1.000000D+00  E=-9.885075D+00
              MO Center=  2.8D-01, -9.3D-01,  5.8D-01, r^2= 6.9D-02
   Bfn.  Coefficient  Atom+Function         Bfn.  Coefficient  Atom+Function  
  ----- ------------  ---------------      ----- ------------  ---------------
    26      0.420915   5 C  s                27      0.356517   5 C  s         
    25      0.306364   5 C  s                28      0.057092   5 C  s         
    47      0.053594   8 C  s                48      0.045406   8 C  s         
    46      0.039015   8 C  s         
 
 Vector    4  Occ=1.000000D+00  E=-9.884867D+00
              MO Center=  3.1D-01,  1.4D-01, -5.6D-01, r^2= 6.9D-02
   Bfn.  Coefficient  Atom+Function         Bfn.  Coefficient  Atom+Function  
  ----- ------------  ---------------      ----- ------------  ---------------
    47      0.420912   8 C  s                48      0.356437   8 C  s         
    46      0.306357   8 C  s                49      0.057572   8 C  s         
    26     -0.053616   5 C  s                27     -0.045397   5 C  s         
    25     -0.039019   5 C  s         
 
 Vector    5  Occ=1.000000D+00  E=-9.873433D+00
              MO Center=  1.7D+00, -1.6D+00,  7.0D-01, r^2= 2.8D-02
   Bfn.  Coefficient  Atom+Function         Bfn.  Coefficient  Atom+Function  
  ----- ------------  ---------------      ----- ------------  ---------------
     2      0.424246   1 C  s                 3      0.359440   1 C  s         
     1      0.308828   1 C  s                 4      0.057556   1 C  s         
 
 Vector    6  Occ=1.000000D+00  E=-9.946992D-01
              MO Center= -1.4D+00,  1.6D+00, -2.7D-01, r^2= 5.6D-01
   Bfn.  Coefficient  Atom+Function         Bfn.  Coefficient  Atom+Function  
  ----- ------------  ---------------      ----- ------------  ---------------
    89      0.515414  13 O  s                90      0.269404  13 O  s         
    71      0.178328  11 C  s                87     -0.143537  13 O  s         
    86     -0.119069  13 O  s                88      0.115361  13 O  s         
    74      0.090817  11 C  py              100      0.079809  14 H  s         
    92     -0.071742  13 O  py               51      0.069963   8 C  s         
 
 Vector    7  Occ=1.000000D+00  E=-7.190253D-01
              MO Center=  2.2D-01, -2.8D-01, -3.9D-02, r^2= 2.5D+00
   Bfn.  Coefficient  Atom+Function         Bfn.  Coefficient  Atom+Function  
  ----- ------------  ---------------      ----- ------------  ---------------
    50      0.321314   8 C  s                29      0.283074   5 C  s         
     5      0.190587   1 C  s                71      0.189565  11 C  s         
    48     -0.091358   8 C  s                89     -0.086249  13 O  s         
    27     -0.082024   5 C  s                51      0.078596   8 C  s         
    30      0.076685   5 C  s                47     -0.073640   8 C  s         
 
 Vector    8  Occ=1.000000D+00  E=-6.550152D-01
              MO Center=  4.1D-01, -4.4D-01,  1.7D-01, r^2= 4.4D+00
   Bfn.  Coefficient  Atom+Function         Bfn.  Coefficient  Atom+Function  
  ----- ------------  ---------------      ----- ------------  ---------------
     5      0.336812   1 C  s                71     -0.257712  11 C  s         
    29      0.193447   5 C  s                50     -0.187473   8 C  s         
     6      0.094898   1 C  s                 3     -0.092929   1 C  s         
    89      0.091851  13 O  s                91     -0.092308  13 O  px        
    94     -0.079947  13 O  px               92      0.078939  13 O  py        
 
 Vector    9  Occ=1.000000D+00  E=-5.658661D-01
              MO Center= -2.3D-01,  3.7D-01,  7.5D-03, r^2= 5.4D+00
   Bfn.  Coefficient  Atom+Function         Bfn.  Coefficient  Atom+Function  
  ----- ------------  ---------------      ----- ------------  ---------------
     5      0.248659   1 C  s                71      0.238922  11 C  s         
    50     -0.212302   8 C  s                92     -0.183119  13 O  py        
    91      0.165138  13 O  px               29     -0.153647   5 C  s         
    95     -0.145479  13 O  py               94      0.140963  13 O  px        
   101     -0.124614  14 H  s                 6      0.117170   1 C  s         
 
 Vector   10  Occ=1.000000D+00  E=-5.241835D-01
              MO Center=  3.4D-01, -5.0D-01,  2.3D-01, r^2= 3.8D+00
   Bfn.  Coefficient  Atom+Function         Bfn.  Coefficient  Atom+Function  
  ----- ------------  ---------------      ----- ------------  ---------------
    29      0.325776   5 C  s                50     -0.230342   8 C  s         
     5     -0.198150   1 C  s                30      0.138231   5 C  s         
    92     -0.108819  13 O  py                7     -0.087989   1 C  px        
    95     -0.088338  13 O  py                6     -0.085442   1 C  s         
    27     -0.083327   5 C  s                43      0.083382   7 H  s         
 
 Vector   11  Occ=1.000000D+00  E=-4.905535D-01
              MO Center= -1.1D+00,  6.5D-01, -6.6D-01, r^2= 2.0D+00
   Bfn.  Coefficient  Atom+Function         Bfn.  Coefficient  Atom+Function  
  ----- ------------  ---------------      ----- ------------  ---------------
    71      0.225602  11 C  s                91     -0.178833  13 O  px        
    74     -0.166464  11 C  py               94     -0.148870  13 O  px        
    82      0.137447  12 H  s                83      0.132808  12 H  s         
    76     -0.128103  11 C  px               77     -0.122885  11 C  py        
    89     -0.123359  13 O  s                73     -0.119716  11 C  px        
 
 Vector   12  Occ=1.000000D+00  E=-4.050181D-01
              MO Center=  5.0D-01, -6.2D-01,  1.7D-01, r^2= 3.2D+00
   Bfn.  Coefficient  Atom+Function         Bfn.  Coefficient  Atom+Function  
  ----- ------------  ---------------      ----- ------------  ---------------
    33      0.146116   5 C  pz               32      0.140702   5 C  py        
     9      0.134702   1 C  pz               53      0.124742   8 C  py        
    36      0.121702   5 C  pz               35      0.120516   5 C  py        
    12      0.115059   1 C  pz               54      0.101857   8 C  pz        
    56      0.102333   8 C  py               65     -0.102037  10 H  s         
 
 Vector   13  Occ=1.000000D+00  E=-3.998822D-01
              MO Center=  4.3D-02,  1.1D-02, -4.1D-02, r^2= 4.0D+00
   Bfn.  Coefficient  Atom+Function         Bfn.  Coefficient  Atom+Function  
  ----- ------------  ---------------      ----- ------------  ---------------
    73     -0.203796  11 C  px               52      0.201145   8 C  px        
    76     -0.180309  11 C  px                8      0.145864   1 C  py        
    55      0.132046   8 C  px               92     -0.124842  13 O  py        
    11      0.122090   1 C  py               79     -0.120036  11 C  px        
    31      0.116057   5 C  px               51      0.111306   8 C  s         
 
 Vector   14  Occ=1.000000D+00  E=-3.745849D-01
              MO Center=  1.4D-01, -8.0D-02,  3.0D-02, r^2= 4.6D+00
   Bfn.  Coefficient  Atom+Function         Bfn.  Coefficient  Atom+Function  
  ----- ------------  ---------------      ----- ------------  ---------------
    93      0.191626  13 O  pz               96      0.161943  13 O  pz        
    75      0.156712  11 C  pz                9     -0.147747   1 C  pz        
    78      0.138092  11 C  pz               33     -0.130546   5 C  pz        
    54      0.127053   8 C  pz               12     -0.122950   1 C  pz        
    36     -0.109337   5 C  pz               57      0.105488   8 C  pz        
 
 Vector   15  Occ=1.000000D+00  E=-3.431599D-01
              MO Center=  5.0D-01,  4.0D-02,  1.4D-01, r^2= 5.2D+00
   Bfn.  Coefficient  Atom+Function         Bfn.  Coefficient  Atom+Function  
  ----- ------------  ---------------      ----- ------------  ---------------
     8      0.200075   1 C  py               11      0.168786   1 C  py        
    92      0.155664  13 O  py               91      0.142543  13 O  px        
    62     -0.130011   9 H  s                51     -0.127405   8 C  s         
    95      0.124338  13 O  py               20      0.120138   3 H  s         
    94      0.120130  13 O  px               17     -0.113854   2 H  s         
 
 Vector   16  Occ=1.000000D+00  E=-3.337020D-01
              MO Center=  4.5D-01, -1.9D-01, -2.2D-01, r^2= 4.9D+00
   Bfn.  Coefficient  Atom+Function         Bfn.  Coefficient  Atom+Function  
  ----- ------------  ---------------      ----- ------------  ---------------
     9      0.196716   1 C  pz               93      0.171830  13 O  pz        
    12      0.165826   1 C  pz               65      0.151252  10 H  s         
    53     -0.150406   8 C  py               92     -0.142851  13 O  py        
    96      0.141066  13 O  pz               54     -0.138408   8 C  pz        
    23     -0.132950   4 H  s                56     -0.132640   8 C  py        
 
 Vector   17  Occ=1.000000D+00  E=-3.147866D-01
              MO Center=  5.7D-01, -7.6D-01,  4.6D-01, r^2= 3.6D+00
   Bfn.  Coefficient  Atom+Function         Bfn.  Coefficient  Atom+Function  
  ----- ------------  ---------------      ----- ------------  ---------------
    31     -0.265285   5 C  px                7      0.259035   1 C  px        
    10      0.219327   1 C  px               34     -0.211346   5 C  px        
    93     -0.143904  13 O  pz               96     -0.123481  13 O  pz        
    37     -0.113852   5 C  px               72     -0.112447  11 C  s         
    20      0.099146   3 H  s                41      0.094923   6 H  s         
 
 Vector   18  Occ=1.000000D+00  E=-2.918110D-01
              MO Center=  5.0D-01, -7.3D-01,  4.1D-01, r^2= 3.6D+00
   Bfn.  Coefficient  Atom+Function         Bfn.  Coefficient  Atom+Function  
  ----- ------------  ---------------      ----- ------------  ---------------
    44      0.193875   7 H  s                33      0.181840   5 C  pz        
    36      0.150612   5 C  pz               23      0.146435   4 H  s         
    32      0.144599   5 C  py               43      0.134869   7 H  s         
    41     -0.133118   6 H  s                 8     -0.119613   1 C  py        
     9     -0.120137   1 C  pz               45      0.119971   7 H  s         
 
 Vector   19  Occ=1.000000D+00  E=-2.896814D-01
              MO Center= -2.7D-01,  3.2D-01, -3.7D-02, r^2= 4.2D+00
   Bfn.  Coefficient  Atom+Function         Bfn.  Coefficient  Atom+Function  
  ----- ------------  ---------------      ----- ------------  ---------------
    93      0.217067  13 O  pz               96      0.184663  13 O  pz        
    83      0.145852  12 H  s                51     -0.142517   8 C  s         
    32     -0.138399   5 C  py               55      0.135710   8 C  px        
    99      0.136107  13 O  pz               41      0.133252   6 H  s         
    52      0.132408   8 C  px               62      0.130414   9 H  s         
 
 Vector   20  Occ=1.000000D+00  E=-2.759296D-01
              MO Center= -3.6D-02,  6.9D-02,  3.4D-02, r^2= 4.7D+00
   Bfn.  Coefficient  Atom+Function         Bfn.  Coefficient  Atom+Function  
  ----- ------------  ---------------      ----- ------------  ---------------
    91      0.177084  13 O  px               54      0.155337   8 C  pz        
    92      0.154926  13 O  py               94      0.152031  13 O  px        
    33     -0.143701   5 C  pz               57      0.143464   8 C  pz        
    73     -0.139775  11 C  px               17      0.136917   2 H  s         
    53     -0.134449   8 C  py               84      0.133783  12 H  s         
 
 Vector   21  Occ=1.000000D+00  E=-9.241277D-02
              MO Center= -9.0D-01,  7.4D-01, -5.3D-01, r^2= 2.3D+00
   Bfn.  Coefficient  Atom+Function         Bfn.  Coefficient  Atom+Function  
  ----- ------------  ---------------      ----- ------------  ---------------
    81      0.399442  11 C  pz               78      0.367139  11 C  pz        
    75      0.339245  11 C  pz               99     -0.279859  13 O  pz        
    30     -0.276431   5 C  s                93     -0.235390  13 O  pz        
    77     -0.201641  11 C  py               96     -0.192655  13 O  pz        
    74     -0.182831  11 C  py               80     -0.168755  11 C  py        
 
 Vector   22  Occ=0.000000D+00  E=-8.515331D-03
              MO Center= -2.3D+00,  1.9D+00, -3.2D-01, r^2= 3.3D+00
   Bfn.  Coefficient  Atom+Function         Bfn.  Coefficient  Atom+Function  
  ----- ------------  ---------------      ----- ------------  ---------------
   102      1.272083  14 H  s                72     -0.728853  11 C  s         
    90     -0.602941  13 O  s                97      0.381237  13 O  px        
    84      0.326203  12 H  s                59      0.310336   8 C  py        
    66      0.274983  10 H  s               101      0.273323  14 H  s         
    39     -0.245391   5 C  pz               98     -0.236464  13 O  py        
 
 Vector   23  Occ=0.000000D+00  E= 3.272811D-02
              MO Center=  1.1D+00, -1.3D+00,  3.2D-01, r^2= 6.8D+00
   Bfn.  Coefficient  Atom+Function         Bfn.  Coefficient  Atom+Function  
  ----- ------------  ---------------      ----- ------------  ---------------
     6      1.853234   1 C  s                30      0.897315   5 C  s         
    51      0.883166   8 C  s                24     -0.793110   4 H  s         
    42     -0.754824   6 H  s                21     -0.724737   3 H  s         
    18     -0.592254   2 H  s                66     -0.587010  10 H  s         
    37     -0.573734   5 C  px               63     -0.493995   9 H  s         
 
 Vector   24  Occ=0.000000D+00  E= 5.598152D-02
              MO Center= -5.4D-01, -4.3D-01, -4.9D-01, r^2= 8.4D+00
   Bfn.  Coefficient  Atom+Function         Bfn.  Coefficient  Atom+Function  
  ----- ------------  ---------------      ----- ------------  ---------------
    84      1.617480  12 H  s                72     -1.431500  11 C  s         
    42      1.063088   6 H  s                 6      0.977834   1 C  s         
    21     -0.739524   3 H  s                66      0.698418  10 H  s         
    63     -0.582634   9 H  s                30     -0.578579   5 C  s         
    45     -0.575726   7 H  s                38      0.503879   5 C  py        
 
 Vector   25  Occ=0.000000D+00  E= 6.923100D-02
              MO Center=  5.1D-01, -7.8D-01,  3.8D-02, r^2= 7.7D+00
   Bfn.  Coefficient  Atom+Function         Bfn.  Coefficient  Atom+Function  
  ----- ------------  ---------------      ----- ------------  ---------------
    51      2.201089   8 C  s                30     -1.655631   5 C  s         
    66     -1.256243  10 H  s                18      1.036180   2 H  s         
    42      0.960085   6 H  s                63     -0.839473   9 H  s         
    45      0.633374   7 H  s                15     -0.572621   1 C  pz        
    24     -0.484902   4 H  s                21     -0.404644   3 H  s         
 
 Vector   26  Occ=0.000000D+00  E= 7.635532D-02
              MO Center=  1.1D+00, -7.0D-01,  4.4D-01, r^2= 7.4D+00
   Bfn.  Coefficient  Atom+Function         Bfn.  Coefficient  Atom+Function  
  ----- ------------  ---------------      ----- ------------  ---------------
     6      1.668729   1 C  s                30     -1.613052   5 C  s         
    63      1.418341   9 H  s                45      1.203579   7 H  s         
    24     -1.166982   4 H  s                58     -0.706792   8 C  px        
    60     -0.600984   8 C  pz               59     -0.592350   8 C  py        
    66     -0.582505  10 H  s                51     -0.578457   8 C  s         
 
 Vector   27  Occ=0.000000D+00  E= 9.416407D-02
              MO Center=  3.8D-01, -4.9D-01, -3.5D-01, r^2= 8.9D+00
   Bfn.  Coefficient  Atom+Function         Bfn.  Coefficient  Atom+Function  
  ----- ------------  ---------------      ----- ------------  ---------------
    72      1.723272  11 C  s                84     -1.538525  12 H  s         
    21     -1.454734   3 H  s                66      1.278075  10 H  s         
     6      1.147944   1 C  s                51     -1.117388   8 C  s         
    14      1.016556   1 C  py               59      0.921211   8 C  py        
    30     -0.827511   5 C  s                18      0.643399   2 H  s         
 
 Vector   28  Occ=0.000000D+00  E= 1.062197D-01
              MO Center=  8.4D-01, -1.5D+00,  4.4D-01, r^2= 8.6D+00
   Bfn.  Coefficient  Atom+Function         Bfn.  Coefficient  Atom+Function  
  ----- ------------  ---------------      ----- ------------  ---------------
    18      2.246047   2 H  s                30      1.483880   5 C  s         
    15     -1.228495   1 C  pz               24     -1.104958   4 H  s         
    84      0.871280  12 H  s                42     -0.809714   6 H  s         
    51     -0.809666   8 C  s                37     -0.666732   5 C  px        
    14      0.626369   1 C  py               60     -0.606520   8 C  pz        
 
 Vector   29  Occ=0.000000D+00  E= 1.113314D-01
              MO Center=  8.4D-02, -6.1D-01,  6.8D-01, r^2= 7.1D+00
   Bfn.  Coefficient  Atom+Function         Bfn.  Coefficient  Atom+Function  
  ----- ------------  ---------------      ----- ------------  ---------------
    45     -2.388043   7 H  s                42      2.207526   6 H  s         
    38      1.882052   5 C  py               39      1.641519   5 C  pz        
    63      1.470769   9 H  s                66     -1.292658  10 H  s         
    59     -1.281884   8 C  py               60     -1.284542   8 C  pz        
    15     -1.008528   1 C  pz               51     -0.930702   8 C  s         
 
 Vector   30  Occ=0.000000D+00  E= 1.309374D-01
              MO Center=  1.3D+00, -9.1D-01, -1.7D-01, r^2= 6.7D+00
   Bfn.  Coefficient  Atom+Function         Bfn.  Coefficient  Atom+Function  
  ----- ------------  ---------------      ----- ------------  ---------------
    66     -1.798330  10 H  s                24      1.739094   4 H  s         
    60     -1.673677   8 C  pz               21     -1.541843   3 H  s         
    30      1.231813   5 C  s                15      1.120859   1 C  pz        
    63      1.069216   9 H  s                39     -0.962330   5 C  pz        
    13      0.745010   1 C  px               81      0.706619  11 C  pz        
 
 Vector   31  Occ=0.000000D+00  E= 1.373916D-01
              MO Center=  6.2D-01, -3.9D-01,  2.3D-01, r^2= 7.0D+00
   Bfn.  Coefficient  Atom+Function         Bfn.  Coefficient  Atom+Function  
  ----- ------------  ---------------      ----- ------------  ---------------
    21      1.601196   3 H  s                38      1.453942   5 C  py        
    63     -1.383637   9 H  s                14     -1.358883   1 C  py        
    59      1.250671   8 C  py               42      1.237638   6 H  s         
    30      1.136709   5 C  s                60     -1.075194   8 C  pz        
    39     -0.941453   5 C  pz               72      0.776359  11 C  s         
 
 Vector   32  Occ=0.000000D+00  E= 1.561587D-01
              MO Center=  5.1D-01, -8.3D-01,  7.6D-02, r^2= 8.2D+00
   Bfn.  Coefficient  Atom+Function         Bfn.  Coefficient  Atom+Function  
  ----- ------------  ---------------      ----- ------------  ---------------
    37      2.118100   5 C  px               13      1.526441   1 C  px        
    24     -1.304111   4 H  s                 6     -1.168476   1 C  s         
    30      1.166114   5 C  s                51     -1.158840   8 C  s         
    66      1.047323  10 H  s                80     -0.968627  11 C  py        
    45      0.963167   7 H  s                39     -0.805473   5 C  pz        
 
 Vector   33  Occ=0.000000D+00  E= 1.791191D-01
              MO Center= -2.2D-01,  2.2D-01, -5.3D-01, r^2= 8.2D+00
   Bfn.  Coefficient  Atom+Function         Bfn.  Coefficient  Atom+Function  
  ----- ------------  ---------------      ----- ------------  ---------------
    51      2.503019   8 C  s                58     -2.318630   8 C  px        
    79     -2.108859  11 C  px               72     -1.948352  11 C  s         
    80      1.676710  11 C  py               63      1.166531   9 H  s         
   102     -0.824500  14 H  s                84     -0.799902  12 H  s         
    13     -0.746291   1 C  px               45     -0.704388   7 H  s         
 
 Vector   34  Occ=0.000000D+00  E= 1.858863D-01
              MO Center=  1.2D+00, -1.2D+00,  6.7D-01, r^2= 6.4D+00
   Bfn.  Coefficient  Atom+Function         Bfn.  Coefficient  Atom+Function  
  ----- ------------  ---------------      ----- ------------  ---------------
    13      2.113896   1 C  px               39      1.239969   5 C  pz        
    24     -0.884613   4 H  s                21     -0.869893   3 H  s         
    30      0.836971   5 C  s                63      0.832618   9 H  s         
    38     -0.818935   5 C  py               15     -0.674204   1 C  pz        
    80      0.668451  11 C  py               59     -0.655676   8 C  py        
 
 Vector   35  Occ=0.000000D+00  E= 2.176021D-01
              MO Center=  2.4D-01, -1.0D-01, -1.1D-01, r^2= 7.9D+00
   Bfn.  Coefficient  Atom+Function         Bfn.  Coefficient  Atom+Function  
  ----- ------------  ---------------      ----- ------------  ---------------
    15      1.239216   1 C  pz               81     -1.114653  11 C  pz        
    37     -0.886726   5 C  px               59      0.880184   8 C  py        
    63     -0.846550   9 H  s                24      0.760992   4 H  s         
    14      0.735882   1 C  py               58      0.553294   8 C  px        
    84     -0.546600  12 H  s               102      0.523758  14 H  s         
 
 Vector   36  Occ=0.000000D+00  E= 2.401268D-01
              MO Center=  3.3D-01, -8.4D-01,  2.1D-01, r^2= 8.3D+00
   Bfn.  Coefficient  Atom+Function         Bfn.  Coefficient  Atom+Function  
  ----- ------------  ---------------      ----- ------------  ---------------
    79      2.534809  11 C  px               51     -1.966465   8 C  s         
    58      1.745852   8 C  px               14     -1.631487   1 C  py        
    84      1.411626  12 H  s                72      1.375731  11 C  s         
    66     -1.155987  10 H  s                13     -0.829560   1 C  px        
    21      0.742095   3 H  s                60     -0.690218   8 C  pz        
 
 Vector   37  Occ=0.000000D+00  E= 2.457756D-01
              MO Center= -4.0D-01,  2.0D-01, -2.9D-01, r^2= 6.8D+00
   Bfn.  Coefficient  Atom+Function         Bfn.  Coefficient  Atom+Function  
  ----- ------------  ---------------      ----- ------------  ---------------
    79     -2.792843  11 C  px               51      2.731806   8 C  s         
    72     -2.691740  11 C  s                84     -2.430475  12 H  s         
    59      1.885179   8 C  py               58     -1.705078   8 C  px        
    80     -1.384060  11 C  py               66      1.330373  10 H  s         
    90      0.975730  13 O  s                15     -0.949715   1 C  pz        
 
 Vector   38  Occ=0.000000D+00  E= 2.529982D-01
              MO Center=  4.4D-02, -1.9D-01, -3.1D-01, r^2= 7.1D+00
   Bfn.  Coefficient  Atom+Function         Bfn.  Coefficient  Atom+Function  
  ----- ------------  ---------------      ----- ------------  ---------------
    37      1.590498   5 C  px               38     -1.413670   5 C  py        
    81      1.358111  11 C  pz                6     -1.176024   1 C  s         
    60     -0.974690   8 C  pz               30      0.930633   5 C  s         
    59      0.792916   8 C  py               15      0.676285   1 C  pz        
    58      0.584904   8 C  px               18     -0.540847   2 H  s         
 
 Vector   39  Occ=0.000000D+00  E= 2.667434D-01
              MO Center= -3.7D-01,  5.6D-01, -1.1D-01, r^2= 7.1D+00
   Bfn.  Coefficient  Atom+Function         Bfn.  Coefficient  Atom+Function  
  ----- ------------  ---------------      ----- ------------  ---------------
    79      3.106051  11 C  px               84      2.463759  12 H  s         
    81      1.799950  11 C  pz               59     -1.518320   8 C  py        
    38     -1.285010   5 C  py               51     -1.283922   8 C  s         
    80      0.910932  11 C  py               90     -0.909159  13 O  s         
    97     -0.767850  13 O  px               63      0.708333   9 H  s         
 
 Vector   40  Occ=0.000000D+00  E= 2.890071D-01
              MO Center=  1.2D-01, -5.0D-01, -5.6D-02, r^2= 5.9D+00
   Bfn.  Coefficient  Atom+Function         Bfn.  Coefficient  Atom+Function  
  ----- ------------  ---------------      ----- ------------  ---------------
    39      1.766193   5 C  pz               38      1.692773   5 C  py        
    79      1.392920  11 C  px               51     -1.273725   8 C  s         
    14     -1.087473   1 C  py               72      1.055690  11 C  s         
    45     -0.904314   7 H  s                80     -0.877789  11 C  py        
    58      0.808908   8 C  px               44     -0.661721   7 H  s         
 
 Vector   41  Occ=0.000000D+00  E= 3.079632D-01
              MO Center=  4.2D-01, -4.1D-01,  4.0D-03, r^2= 7.0D+00
   Bfn.  Coefficient  Atom+Function         Bfn.  Coefficient  Atom+Function  
  ----- ------------  ---------------      ----- ------------  ---------------
    51      2.238870   8 C  s                58     -1.868809   8 C  px        
    72     -1.579137  11 C  s                38     -1.542476   5 C  py        
    15     -1.369861   1 C  pz               14      1.298274   1 C  py        
    60      1.244496   8 C  pz               39      1.226124   5 C  pz        
    30     -0.776952   5 C  s                84     -0.717716  12 H  s         
 
 Vector   42  Occ=0.000000D+00  E= 3.231594D-01
              MO Center= -1.4D+00,  1.5D+00, -1.1D-01, r^2= 5.8D+00
   Bfn.  Coefficient  Atom+Function         Bfn.  Coefficient  Atom+Function  
  ----- ------------  ---------------      ----- ------------  ---------------
   101      1.379172  14 H  s               102     -1.228569  14 H  s         
    84     -0.965298  12 H  s                37     -0.936092   5 C  px        
    79     -0.938706  11 C  px                6      0.766474   1 C  s         
    15      0.717067   1 C  pz               51      0.550889   8 C  s         
    39     -0.506251   5 C  pz               50     -0.506369   8 C  s         
 
 Vector   43  Occ=0.000000D+00  E= 3.465321D-01
              MO Center=  5.0D-01, -5.8D-01, -2.6D-02, r^2= 6.7D+00
   Bfn.  Coefficient  Atom+Function         Bfn.  Coefficient  Atom+Function  
  ----- ------------  ---------------      ----- ------------  ---------------
    58      3.179196   8 C  px               15      2.382384   1 C  pz        
    18     -1.751159   2 H  s                72      1.438910  11 C  s         
    60      1.373535   8 C  pz               39     -1.339074   5 C  pz        
    14     -1.139812   1 C  py               37     -1.113637   5 C  px        
    79      1.026634  11 C  px               63     -0.957443   9 H  s         
 
 Vector   44  Occ=0.000000D+00  E= 3.616384D-01
              MO Center=  7.3D-02,  1.9D-01, -2.0D-01, r^2= 5.9D+00
   Bfn.  Coefficient  Atom+Function         Bfn.  Coefficient  Atom+Function  
  ----- ------------  ---------------      ----- ------------  ---------------
    59      2.352659   8 C  py               39     -1.745487   5 C  pz        
    63     -1.670859   9 H  s                18      1.317848   2 H  s         
    14      1.188331   1 C  py               45      1.062188   7 H  s         
    30      1.025306   5 C  s                37      0.980993   5 C  px        
    51     -0.912955   8 C  s                72     -0.913763  11 C  s         
 
 Vector   45  Occ=0.000000D+00  E= 3.894079D-01
              MO Center=  4.3D-01, -3.7D-01, -1.8D-01, r^2= 6.9D+00
   Bfn.  Coefficient  Atom+Function         Bfn.  Coefficient  Atom+Function  
  ----- ------------  ---------------      ----- ------------  ---------------
    60      2.804411   8 C  pz               66      2.566660  10 H  s         
    63     -2.139288   9 H  s                15      1.801770   1 C  pz        
    45     -1.803074   7 H  s                24      1.730000   4 H  s         
    84      1.683174  12 H  s                58      1.550962   8 C  px        
    79      1.431569  11 C  px               37     -1.082727   5 C  px        
 
 Vector   46  Occ=0.000000D+00  E= 3.959756D-01
              MO Center=  9.0D-02, -2.6D-01,  1.7D-01, r^2= 6.5D+00
   Bfn.  Coefficient  Atom+Function         Bfn.  Coefficient  Atom+Function  
  ----- ------------  ---------------      ----- ------------  ---------------
    37      3.151746   5 C  px               42      2.520032   6 H  s         
    13      1.834393   1 C  px               21     -1.665892   3 H  s         
     6     -1.599167   1 C  s                30      1.399940   5 C  s         
    59      1.339711   8 C  py               80     -0.988302  11 C  py        
    15     -0.973400   1 C  pz               63     -0.916218   9 H  s         
 
 Vector   47  Occ=0.000000D+00  E= 4.239692D-01
              MO Center=  2.5D-01, -6.9D-01,  2.8D-01, r^2= 8.5D+00
   Bfn.  Coefficient  Atom+Function         Bfn.  Coefficient  Atom+Function  
  ----- ------------  ---------------      ----- ------------  ---------------
    84      2.737016  12 H  s                59     -2.712234   8 C  py        
    14     -2.477399   1 C  py               37      2.388001   5 C  px        
    18     -2.138409   2 H  s                81      1.953933  11 C  pz        
    39      1.861008   5 C  pz               80      1.853420  11 C  py        
    79      1.732655  11 C  px               24     -1.632946   4 H  s         
 
 Vector   48  Occ=0.000000D+00  E= 4.311743D-01
              MO Center= -5.2D-02,  1.9D-02, -1.3D-01, r^2= 7.1D+00
   Bfn.  Coefficient  Atom+Function         Bfn.  Coefficient  Atom+Function  
  ----- ------------  ---------------      ----- ------------  ---------------
    59      4.140814   8 C  py               38     -3.660864   5 C  py        
    60      3.482875   8 C  pz               45      3.118448   7 H  s         
    39     -3.082678   5 C  pz               66      2.840990  10 H  s         
    63     -2.807383   9 H  s                42     -2.762306   6 H  s         
    80     -1.807152  11 C  py               81     -1.607241  11 C  pz        
 
 Vector   49  Occ=0.000000D+00  E= 4.403819D-01
              MO Center=  1.2D+00, -1.5D+00,  5.7D-01, r^2= 6.1D+00
   Bfn.  Coefficient  Atom+Function         Bfn.  Coefficient  Atom+Function  
  ----- ------------  ---------------      ----- ------------  ---------------
    18      2.398974   2 H  s                24     -1.879400   4 H  s         
    15     -1.681531   1 C  pz               84      1.159637  12 H  s         
    17     -1.150457   2 H  s                79      1.153064  11 C  px        
    59     -1.004638   8 C  py               12      0.881741   1 C  pz        
    30     -0.791318   5 C  s                21     -0.781986   3 H  s         
 
 Vector   50  Occ=0.000000D+00  E= 4.588496D-01
              MO Center= -7.5D-02, -2.5D-02, -4.6D-01, r^2= 7.6D+00
   Bfn.  Coefficient  Atom+Function         Bfn.  Coefficient  Atom+Function  
  ----- ------------  ---------------      ----- ------------  ---------------
    84     -1.785319  12 H  s                72      1.724026  11 C  s         
    66      1.601614  10 H  s                42      1.563606   6 H  s         
    79     -1.524836  11 C  px               51     -1.293818   8 C  s         
    50      1.137790   8 C  s                58     -1.070216   8 C  px        
    63      1.064871   9 H  s                30     -1.029633   5 C  s         
 
 Vector   51  Occ=0.000000D+00  E= 4.596592D-01
              MO Center=  7.0D-01, -5.0D-01,  2.4D-01, r^2= 7.0D+00
   Bfn.  Coefficient  Atom+Function         Bfn.  Coefficient  Atom+Function  
  ----- ------------  ---------------      ----- ------------  ---------------
    21      2.504791   3 H  s                38      2.140317   5 C  py        
    13     -1.788180   1 C  px               37     -1.584480   5 C  px        
    84      1.555748  12 H  s                45     -1.454606   7 H  s         
    63     -1.450183   9 H  s                79      1.456996  11 C  px        
    58      1.314888   8 C  px               14     -1.077219   1 C  py        
 
 Vector   52  Occ=0.000000D+00  E= 4.752053D-01
              MO Center=  3.7D-01, -8.8D-01,  4.1D-01, r^2= 6.1D+00
   Bfn.  Coefficient  Atom+Function         Bfn.  Coefficient  Atom+Function  
  ----- ------------  ---------------      ----- ------------  ---------------
    30      2.656393   5 C  s                66      1.954434  10 H  s         
    24     -1.640919   4 H  s                29     -1.631534   5 C  s         
    45     -1.615388   7 H  s                42     -1.069615   6 H  s         
    39      1.046665   5 C  pz               58     -1.014353   8 C  px        
    15     -0.855587   1 C  pz               44      0.852773   7 H  s         
 
 Vector   53  Occ=0.000000D+00  E= 4.849441D-01
              MO Center= -8.1D-02, -2.3D-01, -2.4D-01, r^2= 8.1D+00
   Bfn.  Coefficient  Atom+Function         Bfn.  Coefficient  Atom+Function  
  ----- ------------  ---------------      ----- ------------  ---------------
    72      3.067078  11 C  s                84     -2.103867  12 H  s         
     6      1.879302   1 C  s                 5     -1.342104   1 C  s         
    42      1.335208   6 H  s                79     -1.326894  11 C  px        
    51      1.273571   8 C  s                18     -1.242265   2 H  s         
    50     -1.205106   8 C  s                71     -1.109163  11 C  s         
 
 Vector   54  Occ=0.000000D+00  E= 4.916580D-01
              MO Center=  7.5D-01, -8.6D-02,  4.0D-01, r^2= 8.7D+00
   Bfn.  Coefficient  Atom+Function         Bfn.  Coefficient  Atom+Function  
  ----- ------------  ---------------      ----- ------------  ---------------
     6      2.426429   1 C  s                59     -2.428317   8 C  py        
    63      1.826303   9 H  s                21     -1.628406   3 H  s         
     5     -1.398466   1 C  s                80      1.222272  11 C  py        
    20      1.092287   3 H  s                30     -1.080571   5 C  s         
    18     -1.061896   2 H  s               102     -1.029050  14 H  s         
 
 Vector   55  Occ=0.000000D+00  E= 4.996208D-01
              MO Center= -2.4D-02, -2.0D-01,  7.2D-02, r^2= 8.5D+00
   Bfn.  Coefficient  Atom+Function         Bfn.  Coefficient  Atom+Function  
  ----- ------------  ---------------      ----- ------------  ---------------
    72      2.467036  11 C  s                 6     -1.781554   1 C  s         
    60     -1.274752   8 C  pz               30      1.263837   5 C  s         
    66     -1.250931  10 H  s                98      1.103483  13 O  py        
    42     -1.032136   6 H  s                24      1.015106   4 H  s         
   102     -0.998617  14 H  s                41      0.987002   6 H  s         
 
 Vector   56  Occ=0.000000D+00  E= 5.062518D-01
              MO Center= -7.7D-01,  9.8D-01,  3.3D-01, r^2= 6.1D+00
   Bfn.  Coefficient  Atom+Function         Bfn.  Coefficient  Atom+Function  
  ----- ------------  ---------------      ----- ------------  ---------------
    59      2.848632   8 C  py               45      2.133860   7 H  s         
    80     -1.725957  11 C  py               79     -1.659631  11 C  px        
    63     -1.613738   9 H  s                66      1.574217  10 H  s         
    39     -1.245597   5 C  pz               84     -1.250278  12 H  s         
    99     -1.141811  13 O  pz               98      0.926645  13 O  py        
 
 Vector   57  Occ=0.000000D+00  E= 5.613735D-01
              MO Center= -2.2D-01,  1.3D-01, -1.8D-01, r^2= 6.0D+00
   Bfn.  Coefficient  Atom+Function         Bfn.  Coefficient  Atom+Function  
  ----- ------------  ---------------      ----- ------------  ---------------
    72      5.039217  11 C  s                79      3.397682  11 C  px        
    51     -3.369746   8 C  s                58      2.589120   8 C  px        
    71     -2.253215  11 C  s                30      1.520353   5 C  s         
    59     -1.500899   8 C  py                6      1.238419   1 C  s         
    84      1.116287  12 H  s                60      1.102220   8 C  pz        
 
 Vector   58  Occ=0.000000D+00  E= 5.803927D-01
              MO Center= -4.8D-01,  4.0D-01, -2.5D-01, r^2= 5.9D+00
   Bfn.  Coefficient  Atom+Function         Bfn.  Coefficient  Atom+Function  
  ----- ------------  ---------------      ----- ------------  ---------------
    59      3.231371   8 C  py               79     -3.089110  11 C  px        
    80     -2.549088  11 C  py               84     -2.426220  12 H  s         
    51      2.240244   8 C  s                38     -1.920475   5 C  py        
    60      1.910421   8 C  pz               81     -1.845447  11 C  pz        
    39     -1.799682   5 C  pz               72      1.664423  11 C  s         
 
 Vector   59  Occ=0.000000D+00  E= 6.523081D-01
              MO Center= -2.9D-01,  5.6D-01, -3.5D-01, r^2= 6.3D+00
   Bfn.  Coefficient  Atom+Function         Bfn.  Coefficient  Atom+Function  
  ----- ------------  ---------------      ----- ------------  ---------------
    51      8.117672   8 C  s                72     -5.398398  11 C  s         
    79     -3.097517  11 C  px               38      2.579600   5 C  py        
    59     -2.550211   8 C  py               97      2.505077  13 O  px        
    60     -2.445616   8 C  pz               30     -2.371741   5 C  s         
     6      2.296440   1 C  s                58     -2.088662   8 C  px        
 
 Vector   60  Occ=0.000000D+00  E= 6.945608D-01
              MO Center=  3.1D-01, -3.0D-01,  4.5D-02, r^2= 6.3D+00
   Bfn.  Coefficient  Atom+Function         Bfn.  Coefficient  Atom+Function  
  ----- ------------  ---------------      ----- ------------  ---------------
    72      6.088466  11 C  s                 6     -4.034646   1 C  s         
    30     -3.844185   5 C  s                58      2.639549   8 C  px        
    71     -2.143164  11 C  s                59     -1.789466   8 C  py        
    29      1.692559   5 C  s                38     -1.637769   5 C  py        
     5      1.561014   1 C  s                37      1.402080   5 C  px        
 
 Vector   61  Occ=0.000000D+00  E= 7.198191D-01
              MO Center=  1.0D+00, -1.1D+00,  4.5D-01, r^2= 5.3D+00
   Bfn.  Coefficient  Atom+Function         Bfn.  Coefficient  Atom+Function  
  ----- ------------  ---------------      ----- ------------  ---------------
     6      9.021365   1 C  s                30     -8.491814   5 C  s         
    37     -2.177541   5 C  px               51     -2.183894   8 C  s         
    29      2.166463   5 C  s                 5     -2.028607   1 C  s         
    13     -2.004747   1 C  px               50      1.350291   8 C  s         
    14      1.236564   1 C  py               20     -1.077273   3 H  s         
 
 Vector   62  Occ=0.000000D+00  E= 7.811527D-01
              MO Center=  2.2D-02,  6.2D-01, -1.2D-01, r^2= 6.4D+00
   Bfn.  Coefficient  Atom+Function         Bfn.  Coefficient  Atom+Function  
  ----- ------------  ---------------      ----- ------------  ---------------
    51     11.099954   8 C  s                30     -8.686298   5 C  s         
    72     -4.812727  11 C  s                 6      4.006295   1 C  s         
    50     -2.872093   8 C  s                60      2.772171   8 C  pz        
    97     -2.175642  13 O  px               37     -2.117699   5 C  px        
    58     -2.112684   8 C  px               38     -1.779313   5 C  py        
 
 Vector   63  Occ=0.000000D+00  E= 1.121794D+00
              MO Center= -1.1D+00,  1.5D+00, -1.9D-01, r^2= 3.6D+00
   Bfn.  Coefficient  Atom+Function         Bfn.  Coefficient  Atom+Function  
  ----- ------------  ---------------      ----- ------------  ---------------
    90      6.186176  13 O  s                72     -3.615019  11 C  s         
    89     -3.011333  13 O  s                59      2.738438   8 C  py        
    30      2.450358   5 C  s                80     -2.351056  11 C  py        
    39     -1.691144   5 C  pz               81     -1.681684  11 C  pz        
    84     -1.313402  12 H  s                98     -1.272681  13 O  py        
 
 Vector   64  Occ=0.000000D+00  E= 1.326377D+00
              MO Center= -3.7D-01,  7.3D-02, -3.0D-01, r^2= 4.0D+00
   Bfn.  Coefficient  Atom+Function         Bfn.  Coefficient  Atom+Function  
  ----- ------------  ---------------      ----- ------------  ---------------
    77      1.361983  11 C  py               34      1.155226   5 C  px        
    30      1.137012   5 C  s                37     -1.048068   5 C  px        
    78     -0.938083  11 C  pz               55     -0.903858   8 C  px        
    10      0.843499   1 C  px               58      0.756283   8 C  px        
    74     -0.710262  11 C  py               13     -0.702778   1 C  px        
 
 Vector   65  Occ=0.000000D+00  E= 1.361553D+00
              MO Center= -1.3D-01,  1.2D-01, -3.9D-01, r^2= 3.3D+00
   Bfn.  Coefficient  Atom+Function         Bfn.  Coefficient  Atom+Function  
  ----- ------------  ---------------      ----- ------------  ---------------
    55      1.596941   8 C  px               76      1.566664  11 C  px        
    59      1.285303   8 C  py               30      1.023374   5 C  s         
     6     -0.986264   1 C  s                66      0.935734  10 H  s         
    56     -0.914740   8 C  py               78     -0.912084  11 C  pz        
    51     -0.893920   8 C  s                77     -0.808101  11 C  py        
 
 Vector   66  Occ=0.000000D+00  E= 1.412843D+00
              MO Center=  1.2D-01, -2.5D-01, -1.5D-01, r^2= 3.5D+00
   Bfn.  Coefficient  Atom+Function         Bfn.  Coefficient  Atom+Function  
  ----- ------------  ---------------      ----- ------------  ---------------
    63      1.050086   9 H  s                78      0.992600  11 C  pz        
    30      0.967387   5 C  s                10      0.930329   1 C  px        
    55      0.887446   8 C  px               34      0.861813   5 C  px        
    42     -0.841279   6 H  s                77      0.836800  11 C  py        
    84     -0.808182  12 H  s                51     -0.777254   8 C  s         
 
 Vector   67  Occ=0.000000D+00  E= 1.441027D+00
              MO Center=  7.7D-01, -9.1D-01,  4.1D-01, r^2= 3.8D+00
   Bfn.  Coefficient  Atom+Function         Bfn.  Coefficient  Atom+Function  
  ----- ------------  ---------------      ----- ------------  ---------------
    10      1.269148   1 C  px               38      1.205045   5 C  py        
    45     -1.157703   7 H  s                35     -1.140549   5 C  py        
    11     -1.111615   1 C  py               24      1.057694   4 H  s         
     6     -0.961045   1 C  s                13     -0.912918   1 C  px        
    34      0.889746   5 C  px               79      0.740231  11 C  px        
 
 Vector   68  Occ=0.000000D+00  E= 1.447795D+00
              MO Center=  5.0D-01, -6.5D-01,  1.7D-01, r^2= 3.2D+00
   Bfn.  Coefficient  Atom+Function         Bfn.  Coefficient  Atom+Function  
  ----- ------------  ---------------      ----- ------------  ---------------
    51      2.008199   8 C  s                36      1.652454   5 C  pz        
    30     -1.526017   5 C  s                39     -1.459689   5 C  pz        
    57      1.239930   8 C  pz               45      1.070974   7 H  s         
    13     -0.863642   1 C  px               33     -0.806448   5 C  pz        
    10      0.777180   1 C  px               59      0.776618   8 C  py        
 
 Vector   69  Occ=0.000000D+00  E= 1.477730D+00
              MO Center=  4.6D-01, -6.0D-01,  9.2D-02, r^2= 4.0D+00
   Bfn.  Coefficient  Atom+Function         Bfn.  Coefficient  Atom+Function  
  ----- ------------  ---------------      ----- ------------  ---------------
    51      2.509511   8 C  s                30     -2.208106   5 C  s         
    57      1.332468   8 C  pz               60     -1.323301   8 C  pz        
    77      1.304403  11 C  py               58     -1.226347   8 C  px        
    42      1.115008   6 H  s                38      1.088027   5 C  py        
    10     -1.065675   1 C  px                6      1.020346   1 C  s         
 
 Vector   70  Occ=0.000000D+00  E= 1.521441D+00
              MO Center=  5.1D-01, -5.6D-01,  6.8D-03, r^2= 5.2D+00
   Bfn.  Coefficient  Atom+Function         Bfn.  Coefficient  Atom+Function  
  ----- ------------  ---------------      ----- ------------  ---------------
    11      1.691675   1 C  py               76     -1.509753  11 C  px        
    14     -1.387836   1 C  py               18     -1.362594   2 H  s         
    79      1.113732  11 C  px               21      1.022354   3 H  s         
     8     -0.867900   1 C  py               63     -0.868481   9 H  s         
    58      0.802322   8 C  px               50      0.778561   8 C  s         
 
 Vector   71  Occ=0.000000D+00  E= 1.558239D+00
              MO Center=  5.9D-01, -6.4D-01,  2.5D-01, r^2= 3.8D+00
   Bfn.  Coefficient  Atom+Function         Bfn.  Coefficient  Atom+Function  
  ----- ------------  ---------------      ----- ------------  ---------------
    12      1.447241   1 C  pz               15     -1.375653   1 C  pz        
    59      1.291733   8 C  py               84     -1.195698  12 H  s         
    35     -1.183635   5 C  py               66      1.186501  10 H  s         
    24     -1.070335   4 H  s                79     -1.042255  11 C  px        
    60      1.031835   8 C  pz               76      0.855433  11 C  px        
 
 Vector   72  Occ=0.000000D+00  E= 1.575687D+00
              MO Center=  1.1D-01, -1.1D-01, -2.3D-01, r^2= 3.9D+00
   Bfn.  Coefficient  Atom+Function         Bfn.  Coefficient  Atom+Function  
  ----- ------------  ---------------      ----- ------------  ---------------
    76      1.503876  11 C  px               79     -1.061846  11 C  px        
    10      0.950980   1 C  px               30      0.938009   5 C  s         
    60     -0.855625   8 C  pz               55     -0.836849   8 C  px        
    57      0.769090   8 C  pz               73     -0.753906  11 C  px        
    84     -0.747072  12 H  s                59      0.729804   8 C  py        
 
 Vector   73  Occ=0.000000D+00  E= 1.606986D+00
              MO Center=  4.8D-01, -7.7D-01,  3.3D-01, r^2= 2.7D+00
   Bfn.  Coefficient  Atom+Function         Bfn.  Coefficient  Atom+Function  
  ----- ------------  ---------------      ----- ------------  ---------------
    34      1.289405   5 C  px               37     -1.116058   5 C  px        
    36     -1.074221   5 C  pz               39      0.935282   5 C  pz        
    10     -0.856794   1 C  px               57      0.840808   8 C  pz        
     6      0.830216   1 C  s                44      0.822776   7 H  s         
    29     -0.756825   5 C  s                31     -0.740544   5 C  px        
 
 Vector   74  Occ=0.000000D+00  E= 1.731850D+00
              MO Center=  2.1D-01, -2.8D-01, -1.8D-01, r^2= 3.6D+00
   Bfn.  Coefficient  Atom+Function         Bfn.  Coefficient  Atom+Function  
  ----- ------------  ---------------      ----- ------------  ---------------
    56      1.665538   8 C  py               57      1.330051   8 C  pz        
    36     -1.272638   5 C  pz               66     -1.245383  10 H  s         
    63      1.186785   9 H  s                77     -1.169242  11 C  py        
    60     -1.145195   8 C  pz               62     -1.123624   9 H  s         
    59     -1.096990   8 C  py               65      1.035169  10 H  s         
 
 Vector   75  Occ=0.000000D+00  E= 1.785913D+00
              MO Center=  4.3D-01, -5.4D-01,  5.3D-02, r^2= 3.6D+00
   Bfn.  Coefficient  Atom+Function         Bfn.  Coefficient  Atom+Function  
  ----- ------------  ---------------      ----- ------------  ---------------
    72      1.558364  11 C  s                59     -1.438534   8 C  py        
    58      1.394538   8 C  px               56      1.150914   8 C  py        
    71     -1.113562  11 C  s                18     -1.026011   2 H  s         
    35     -1.020175   5 C  py               37     -0.982603   5 C  px        
    15      0.956940   1 C  pz               34      0.937793   5 C  px        
 
 Vector   76  Occ=0.000000D+00  E= 2.033652D+00
              MO Center= -2.2D+00,  2.1D+00, -1.5D-01, r^2= 1.4D+00
   Bfn.  Coefficient  Atom+Function         Bfn.  Coefficient  Atom+Function  
  ----- ------------  ---------------      ----- ------------  ---------------
   101      2.303206  14 H  s               100     -1.288267  14 H  s         
   102     -1.111454  14 H  s                94      0.775028  13 O  px        
    90     -0.566432  13 O  s                91     -0.563435  13 O  px        
    80      0.456952  11 C  py               51     -0.337880   8 C  s         
    60     -0.265156   8 C  pz               59     -0.225612   8 C  py        
 
 Vector   77  Occ=0.000000D+00  E= 2.114220D+00
              MO Center=  7.7D-01, -8.9D-01,  3.4D-01, r^2= 5.1D+00
   Bfn.  Coefficient  Atom+Function         Bfn.  Coefficient  Atom+Function  
  ----- ------------  ---------------      ----- ------------  ---------------
     5      2.070409   1 C  s                 4     -1.637260   1 C  s         
    29     -1.633046   5 C  s                71     -1.421429  11 C  s         
[...]
 
 Vector   86  Occ=0.000000D+00  E= 2.588768D+00
              MO Center= -7.9D-01,  3.2D-01, -5.4D-01, r^2= 3.6D+00
   Bfn.  Coefficient  Atom+Function         Bfn.  Coefficient  Atom+Function  
  ----- ------------  ---------------      ----- ------------  ---------------
    72      4.166699  11 C  s                71     -3.634133  11 C  s         
    70      2.526730  11 C  s                60      1.796099   8 C  pz        
    80     -1.751999  11 C  py               38     -1.621325   5 C  py        
    59      1.476148   8 C  py               58      1.426989   8 C  px        
    83     -1.226414  12 H  s                 5     -1.142492   1 C  s         
 
 Vector   87  Occ=0.000000D+00  E= 2.640471D+00
              MO Center= -4.2D-01,  5.8D-01,  4.2D-02, r^2= 3.9D+00
   Bfn.  Coefficient  Atom+Function         Bfn.  Coefficient  Atom+Function  
  ----- ------------  ---------------      ----- ------------  ---------------
    29      2.461343   5 C  s                51     -2.181846   8 C  s         
    30     -2.061008   5 C  s                50      1.894066   8 C  s         
    28     -1.836928   5 C  s                49     -1.397266   8 C  s         
    71      1.166799  11 C  s                70     -1.086335  11 C  s         
    62      0.790744   9 H  s                96     -0.769296  13 O  pz        
 
 Vector   88  Occ=0.000000D+00  E= 2.701686D+00
              MO Center=  7.0D-01, -8.0D-01,  4.0D-01, r^2= 4.3D+00
   Bfn.  Coefficient  Atom+Function         Bfn.  Coefficient  Atom+Function  
  ----- ------------  ---------------      ----- ------------  ---------------
     6      3.847967   1 C  s                 5     -3.467626   1 C  s         
    30      3.082128   5 C  s                51     -2.601898   8 C  s         
    29     -2.521605   5 C  s                 4      2.493526   1 C  s         
    50      1.946263   8 C  s                72     -1.788182  11 C  s         
    28      1.771210   5 C  s                49     -1.307596   8 C  s         
 
 Vector   89  Occ=0.000000D+00  E= 2.716285D+00
              MO Center= -1.1D-01,  2.7D-01,  1.8D-02, r^2= 4.8D+00
   Bfn.  Coefficient  Atom+Function         Bfn.  Coefficient  Atom+Function  
  ----- ------------  ---------------      ----- ------------  ---------------
    51      3.765775   8 C  s                30      3.392627   5 C  s         
     6     -3.308550   1 C  s                50     -2.753574   8 C  s         
    29     -2.486307   5 C  s                 5      2.052520   1 C  s         
    72     -1.808562  11 C  s                49      1.796156   8 C  s         
    79     -1.779350  11 C  px               28      1.681208   5 C  s         
 
 Vector   90  Occ=0.000000D+00  E= 2.883523D+00
              MO Center=  6.1D-01, -4.7D-01, -4.1D-03, r^2= 4.0D+00
   Bfn.  Coefficient  Atom+Function         Bfn.  Coefficient  Atom+Function  
  ----- ------------  ---------------      ----- ------------  ---------------
    51      6.676968   8 C  s                30     -5.850546   5 C  s         
     6      4.961671   1 C  s                50     -3.784086   8 C  s         
    72     -3.594950  11 C  s                29      2.929195   5 C  s         
     5     -2.903739   1 C  s                49      2.423781   8 C  s         
     4      1.955084   1 C  s                28     -1.872087   5 C  s         
 
 Vector   91  Occ=0.000000D+00  E= 2.972577D+00
              MO Center= -1.2D+00,  1.7D+00, -1.6D-01, r^2= 1.7D+00
   Bfn.  Coefficient  Atom+Function         Bfn.  Coefficient  Atom+Function  
  ----- ------------  ---------------      ----- ------------  ---------------
    51      1.889292   8 C  s                97      1.729641  13 O  px        
    94     -1.712833  13 O  px               50     -1.618885   8 C  s         
    79     -1.235086  11 C  px              101      1.172287  14 H  s         
    49      1.080218   8 C  s                91      0.985069  13 O  px        
    84     -0.978007  12 H  s               100     -0.893412  14 H  s         
 
 Vector   92  Occ=0.000000D+00  E= 4.629508D+00
              MO Center= -1.3D+00,  1.8D+00, -1.6D-01, r^2= 9.3D-01
   Bfn.  Coefficient  Atom+Function         Bfn.  Coefficient  Atom+Function  
  ----- ------------  ---------------      ----- ------------  ---------------
    89      5.023421  13 O  s                90     -3.962229  13 O  s         
    88     -3.899840  13 O  s                72      1.987116  11 C  s         
    59     -1.444355   8 C  py               80      1.259385  11 C  py        
    81      0.889163  11 C  pz               87      0.817155  13 O  s         
    84      0.692468  12 H  s                39      0.680952   5 C  pz        
 
 Vector   93  Occ=0.000000D+00  E= 1.160121D+01
              MO Center= -5.2D-01,  3.7D-01, -5.4D-01, r^2= 1.6D+00
   Bfn.  Coefficient  Atom+Function         Bfn.  Coefficient  Atom+Function  
  ----- ------------  ---------------      ----- ------------  ---------------
    70     -2.791725  11 C  s                69      2.728143  11 C  s         
    71      2.379050  11 C  s                49     -1.567605   8 C  s         
    48      1.519622   8 C  s                68     -1.430193  11 C  s         
    72     -1.413574  11 C  s                50      1.317576   8 C  s         
     3      0.842181   1 C  s                 4     -0.844261   1 C  s         
 
 Vector   94  Occ=0.000000D+00  E= 1.169982D+01
              MO Center=  1.3D+00, -1.3D+00,  5.5D-01, r^2= 1.4D+00
   Bfn.  Coefficient  Atom+Function         Bfn.  Coefficient  Atom+Function  
  ----- ------------  ---------------      ----- ------------  ---------------
     4     -3.015086   1 C  s                 3      2.920158   1 C  s         
     5      2.645452   1 C  s                 6     -1.975677   1 C  s         
     2     -1.526824   1 C  s                28     -1.076246   5 C  s         
    27      1.047104   5 C  s                49      0.978344   8 C  s         
    48     -0.918436   8 C  s                50     -0.920736   8 C  s         
 
 Vector   95  Occ=0.000000D+00  E= 1.172787D+01
              MO Center=  4.7D-01, -1.0D+00,  6.0D-01, r^2= 6.5D-01
   Bfn.  Coefficient  Atom+Function         Bfn.  Coefficient  Atom+Function  
  ----- ------------  ---------------      ----- ------------  ---------------
    28     -3.214701   5 C  s                27      3.049799   5 C  s         
    29      2.946803   5 C  s                30     -2.623371   5 C  s         
    26     -1.591939   5 C  s                 6      1.401187   1 C  s         
     4      1.288176   1 C  s                 5     -1.255822   1 C  s         
     3     -1.195632   1 C  s                51      0.690219   8 C  s         
 
 Vector   96  Occ=0.000000D+00  E= 1.180222D+01
              MO Center= -4.1D-02,  2.7D-01, -5.8D-01, r^2= 8.9D-01
   Bfn.  Coefficient  Atom+Function         Bfn.  Coefficient  Atom+Function  
  ----- ------------  ---------------      ----- ------------  ---------------
    49     -2.966832   8 C  s                50      2.820086   8 C  s         
    51     -2.800778   8 C  s                48      2.774182   8 C  s         
    72      1.955677  11 C  s                70      1.836176  11 C  s         
    71     -1.799202  11 C  s                69     -1.719691  11 C  s         
    47     -1.442485   8 C  s                68      0.896533  11 C  s         
 
 Vector   97  Occ=0.000000D+00  E= 2.191357D+01
              MO Center= -1.3D+00,  1.8D+00, -1.5D-01, r^2= 2.1D-01
   Bfn.  Coefficient  Atom+Function         Bfn.  Coefficient  Atom+Function  
  ----- ------------  ---------------      ----- ------------  ---------------
    87      3.322353  13 O  s                88     -3.218748  13 O  s         
    89      2.577622  13 O  s                86     -1.741964  13 O  s         
    90     -1.645821  13 O  s                72      0.760149  11 C  s         
    59     -0.535657   8 C  py               80      0.503963  11 C  py        
    81      0.351736  11 C  pz               84      0.272073  12 H  s         
 
 Vector   98  Occ=0.000000D+00  E= 6.254528D+01
              MO Center= -5.3D-01,  3.8D-01, -5.4D-01, r^2= 1.2D+00
   Bfn.  Coefficient  Atom+Function         Bfn.  Coefficient  Atom+Function  
  ----- ------------  ---------------      ----- ------------  ---------------
    68      2.455608  11 C  s                69     -1.868237  11 C  s         
    67     -1.453278  11 C  s                47      1.350662   8 C  s         
    70      1.243183  11 C  s                48     -1.030246   8 C  s         
    71     -1.007330  11 C  s                46     -0.799277   8 C  s         
     2      0.731387   1 C  s                49      0.688992   8 C  s         
 
 Vector   99  Occ=0.000000D+00  E= 6.264307D+01
              MO Center=  1.2D+00, -1.3D+00,  5.5D-01, r^2= 1.2D+00
   Bfn.  Coefficient  Atom+Function         Bfn.  Coefficient  Atom+Function  
  ----- ------------  ---------------      ----- ------------  ---------------
     2      2.521201   1 C  s                 3     -1.924736   1 C  s         
     1     -1.489691   1 C  s                 4      1.290420   1 C  s         
    26      1.193357   5 C  s                 5     -1.069301   1 C  s         
    27     -0.913604   5 C  s                 6      0.782625   1 C  s         
    47     -0.758822   8 C  s                25     -0.704611   5 C  s         
 
 Vector  100  Occ=0.000000D+00  E= 6.267511D+01
              MO Center=  5.4D-01, -1.1D+00,  6.2D-01, r^2= 4.7D-01
   Bfn.  Coefficient  Atom+Function         Bfn.  Coefficient  Atom+Function  
  ----- ------------  ---------------      ----- ------------  ---------------
    26      2.648530   5 C  s                27     -2.025742   5 C  s         
    25     -1.563450   5 C  s                28      1.386321   5 C  s         
     2     -1.291720   1 C  s                29     -1.204837   5 C  s         
    30      1.062636   5 C  s                 3      0.985679   1 C  s         
     1      0.763027   1 C  s                 4     -0.683035   1 C  s         
 
 Vector  101  Occ=0.000000D+00  E= 6.275098D+01
              MO Center= -1.8D-02,  2.7D-01, -5.9D-01, r^2= 6.0D-01
   Bfn.  Coefficient  Atom+Function         Bfn.  Coefficient  Atom+Function  
  ----- ------------  ---------------      ----- ------------  ---------------
    47      2.518507   8 C  s                48     -1.935754   8 C  s         
    68     -1.510424  11 C  s                46     -1.483544   8 C  s         
    49      1.350112   8 C  s                50     -1.220760   8 C  s         
    51      1.216053   8 C  s                69      1.158889  11 C  s         
    67      0.889673  11 C  s                72     -0.821144  11 C  s         
 
 Vector  102  Occ=0.000000D+00  E= 1.178542D+02
              MO Center= -1.3D+00,  1.8D+00, -1.4D-01, r^2= 4.5D-02
   Bfn.  Coefficient  Atom+Function         Bfn.  Coefficient  Atom+Function  
  ----- ------------  ---------------      ----- ------------  ---------------
    86      2.969722  13 O  s                87     -2.273695  13 O  s         
    85     -1.756186  13 O  s                88      1.435603  13 O  s         
    89     -1.085628  13 O  s                90      0.696250  13 O  s         
    72     -0.327866  11 C  s                59      0.228907   8 C  py        
    80     -0.215402  11 C  py               81     -0.151128  11 C  pz        
 

   alpha - beta orbital overlaps 
   ----------------------------- 


   alpha      1      2      3      4      5      6      7      8      9     10
    beta      1      2      4      3      5      6      7      8      9     10
 overlap   1.000  1.000  0.991  0.991  1.000  1.000  0.997  0.995  0.996  0.999


   alpha     11     12     13     14     15     16     17     18     19     20
    beta     11     12     13     14     15     16     17     18     19     20
 overlap   0.997  0.971  0.972  0.938  0.839  0.796  0.956  0.960  0.949  0.996


   alpha     21     22     23     24     25     26     27     28     29     30
    beta     21     22     23     24     25     26     27     28     29     30
 overlap   0.991  1.000  0.998  0.996  0.999  0.998  0.991  0.993  0.995  0.995


   alpha     31     32     33     34     35     36     37     38     39     40
    beta     31     32     33     34     35     36     37     37     39     40
 overlap   0.990  0.995  0.978  0.987  0.946  0.900  0.670  0.723  0.941  0.993


   alpha     41     42     43     44     45     46     47     48     49     50
    beta     41     42     43     44     45     46     47     48     49     50
 overlap   0.963  0.966  0.986  0.984  0.987  0.980  0.993  0.987  0.988  0.833


   alpha     51     52     53     54     55     56     57     58     59     60
    beta     51     52     53     54     55     56     57     58     59     60
 overlap   0.833  0.995  0.926  0.945  0.983  0.992  0.986  0.987  0.997  0.996


   alpha     61     62     63     64     65     66     67     68     69     70
    beta     61     62     63     64     65     66     67     67     69     70
 overlap   0.999  0.999  1.000  0.865  0.847  0.961  0.685  0.718  0.991  0.995


   alpha     71     72     73     74     75     76     77     78     79     80
    beta     71     72     73     74     75     76     77     78     79     80
 overlap   0.996  0.994  0.999  1.000  0.999  1.000  0.999  0.998  0.997  0.998


   alpha     81     82     83     84     85     86     87     88     89     90
    beta     81     82     83     84     85     86     87     88     89     90
 overlap   1.000  0.999  0.999  0.992  0.995  0.994  0.996  0.983  0.984  1.000


   alpha     91     92     93     94     95     96     97     98     99    100
    beta     91     92     93     94     95     96     97     98     99    100
 overlap   1.000  1.000  0.998  0.999  1.000  0.998  1.000  0.999  0.999  1.000


   alpha    101    102
    beta    101    102
 overlap   0.999  1.000

     --------------------------
     Expectation value of S2:  
     --------------------------
      <S2> =      0.7526 (Exact =     0.7500)
 

 center of mass
 --------------
 x =  -0.07897350 y =   0.11808402 z =  -0.02484298

 moments of inertia (a.u.)
 ------------------
         538.123512278363         338.126382445747        -110.444872948074
         338.126382445747         455.521138842120         131.188151620444
        -110.444872948074         131.188151620444         779.448634072481
 
     Multipole analysis of the density
     ---------------------------------
 
     L   x y z        total         alpha         beta         nuclear
     -   - - -        -----         -----         ----         -------
     0   0 0 0     -0.000000    -21.000000    -20.000000     41.000000
 
     1   1 0 0     -0.636740      0.547972     -1.184711      0.000000
     1   0 1 0     -0.074265     -0.715990      0.641724     -0.000000
     1   0 0 1     -0.096128      0.491315     -0.587443      0.000000
 
     2   2 0 0    -20.101875   -119.635769   -114.825892    214.359786
     2   1 1 0     -2.455859     97.196495     93.725698   -193.378051
     2   1 0 1      0.632460    -33.201423    -31.277202     65.111085
     2   0 2 0    -25.164743   -140.129868   -135.400373    250.365498
     2   0 1 1      0.280872     38.880468     36.772289    -75.371884
     2   0 0 2    -25.407235    -49.644294    -46.162257     70.399316
 

 Task  times  cpu:       26.5s     wall:       27.4s
 
 
                                NWChem Input Module
                                -------------------
 
 
 Summary of allocated global arrays
-----------------------------------
  No active global arrays



                         GA Statistics for process    0
                         ------------------------------

       create   destroy   get      put      acc     scatter   gather  read&inc
calls: 1550     1550     3.23e+05 9694     2.17e+05    0        0     2515     
number of processes/call 9.29e+00 6.78e+01 8.00e+00 0.00e+00 0.00e+00
bytes total:             4.18e+08 5.03e+07 2.18e+08 0.00e+00 0.00e+00 2.01e+04
bytes remote:            3.34e+08 2.63e+07 1.83e+08 0.00e+00 0.00e+00 0.00e+00
Max memory consumed for GA by this process: 791880 bytes
 
 
 
                                     CITATION
                                     --------
                Please cite the following reference when publishing
                           results obtained with NWChem:
 
          E. Apr, E. J. Bylaska, W. A. de Jong, N. Govind, K. Kowalski,
       T. P. Straatsma, M. Valiev, H. J. J. van Dam, Y. Alexeev, J. Anchell,
       V. Anisimov, F. W. Aquino, R. Atta-Fynn, J. Autschbach, N. P. Bauman,
     J. C. Becca, D. E. Bernholdt, K. Bhaskaran-Nair, S. Bogatko, P. Borowski,
        J. Boschen, J. Brabec, A. Bruner, E. Caut, Y. Chen, G. N. Chuev,
      C. J. Cramer, J. Daily, M. J. O. Deegan, T. H. Dunning Jr., M. Dupuis,
   K. G. Dyall, G. I. Fann, S. A. Fischer, A. Fonari, H. Frchtl, L. Gagliardi,
      J. Garza, N. Gawande, S. Ghosh, K. Glaesemann, A. W. Gtz, J. Hammond,
       V. Helms, E. D. Hermes, K. Hirao, S. Hirata, M. Jacquelin, L. Jensen,
   B. G. Johnson, H. Jnsson, R. A. Kendall, M. Klemm, R. Kobayashi, V. Konkov,
      S. Krishnamoorthy, M. Krishnan, Z. Lin, R. D. Lins, R. J. Littlefield,
      A. J. Logsdail, K. Lopata, W. Ma, A. V. Marenich, J. Martin del Campo,
   D. Mejia-Rodriguez, J. E. Moore, J. M. Mullin, T. Nakajima, D. R. Nascimento,
    J. A. Nichols, P. J. Nichols, J. Nieplocha, A. Otero-de-la-Roza, B. Palmer,
    A. Panyala, T. Pirojsirikul, B. Peng, R. Peverati, J. Pittner, L. Pollack,
   R. M. Richard, P. Sadayappan, G. C. Schatz, W. A. Shelton, D. W. Silverstein,
   D. M. A. Smith, T. A. Soares, D. Song, M. Swart, H. L. Taylor, G. S. Thomas,
            V. Tipparaju, D. G. Truhlar, K. Tsemekhman, T. Van Voorhis,
     . Vzquez-Mayagoitia, P. Verma, O. Villa, A. Vishnu, K. D. Vogiatzis,
        D. Wang, J. H. Weare, M. J. Williamson, T. L. Windus, K. Woliski,
        A. T. Wong, Q. Wu, C. Yang, Q. Yu, M. Zacharias, Z. Zhang, Y. Zhao,
                                and R. J. Harrison
                        "NWChem: Past, present, and future
                         J. Chem. Phys. 152, 184102 (2020)
                               doi:10.1063/5.0004997
 
                                      AUTHORS
                                      -------
     E. Apra, E. J. Bylaska, N. Govind, K. Kowalski, M. Valiev, W. A. de Jong,
      T. P. Straatsma, H. J. J. van Dam, D. Wang, T. L. Windus, N. P. Bauman,
       A. Panyala, J. Hammond, J. Autschbach, K. Bhaskaran-Nair, J. Brabec,
    K. Lopata, S. A. Fischer, S. Krishnamoorthy, M. Jacquelin, W. Ma, M. Klemm,
       O. Villa, Y. Chen, V. Anisimov, F. Aquino, S. Hirata, M. T. Hackler,
           Eric Hermes, L. Jensen, J. E. Moore, J. C. Becca, V. Konjkov,
            D. Mejia-Rodriguez, T. Risthaus, M. Malagoli, A. Marenich,
   A. Otero-de-la-Roza, J. Mullin, P. Nichols, R. Peverati, J. Pittner, Y. Zhao,
        P.-D. Fan, A. Fonari, M. J. Williamson, R. J. Harrison, J. R. Rehr,
      M. Dupuis, D. Silverstein, D. M. A. Smith, J. Nieplocha, V. Tipparaju,
      M. Krishnan, B. E. Van Kuiken, A. Vazquez-Mayagoitia, M. Swart, Q. Wu,
   T. Van Voorhis, A. A. Auer, M. Nooijen, L. D. Crosby, E. Brown, G. Cisneros,
     G. I. Fann, H. Fruchtl, J. Garza, K. Hirao, R. A. Kendall, J. A. Nichols,
       K. Tsemekhman, K. Wolinski, J. Anchell, D. E. Bernholdt, P. Borowski,
       T. Clark, D. Clerc, H. Dachsel, M. J. O. Deegan, K. Dyall, D. Elwood,
      E. Glendening, M. Gutowski, A. C. Hess, J. Jaffe, B. G. Johnson, J. Ju,
        R. Kobayashi, R. Kutteh, Z. Lin, R. Littlefield, X. Long, B. Meng,
      T. Nakajima, S. Niu, L. Pollack, M. Rosing, K. Glaesemann, G. Sandrone,
      M. Stave, H. Taylor, G. Thomas, J. H. van Lenthe, A. T. Wong, Z. Zhang.

 Total times  cpu:       26.5s     wall:       27.5s
