 
             Northwest Computational Chemistry Package (NWChem) 7.0.0
             --------------------------------------------------------
 
 
                    Environmental Molecular Sciences Laboratory
                       Pacific Northwest National Laboratory
                                Richland, WA 99352
 
                              Copyright (c) 1994-2020
                       Pacific Northwest National Laboratory
                            Battelle Memorial Institute
 
             NWChem is an open-source computational chemistry package
                        distributed under the terms of the
                      Educational Community License (ECL) 2.0
             A copy of the license is included with this distribution
                              in the LICENSE.TXT file
 
                                  ACKNOWLEDGMENT
                                  --------------

            This software and its documentation were developed at the
            EMSL at Pacific Northwest National Laboratory, a multiprogram
            national laboratory, operated for the U.S. Department of Energy
            by Battelle under Contract Number DE-AC05-76RL01830. Support
            for this work was provided by the Department of Energy Office
            of Biological and Environmental Research, Office of Basic
            Energy Sciences, and the Office of Advanced Scientific Computing.


                                NWChem Input Module
                                -------------------
 
 
 Summary of "ao basis" -> "" (spherical)
 ------------------------------------------------------------------------------
       Tag                 Description            Shells   Functions and Types
 ---------------- ------------------------------  ------  ---------------------
 *                        ahlrichs_vtz                on all atoms 



 Scaling coordinates for geometry "geometry" by  1.889725989
 (inverse scale =  0.529177249)

 
 
                             Geometry "geometry" -> ""
                             -------------------------
 
 Output coordinates in angstroms (scale by  1.889725989 to convert to a.u.)
 
  No.       Tag          Charge          X              Y              Z
 ---- ---------------- ---------- -------------- -------------- --------------
    1 C                    6.0000    -0.33576444     0.02707915     0.30267588
    2 C                    6.0000     1.02859642     0.46202853     0.47802541
    3 H                    1.0000     1.45750867    -0.03482087     1.37417700
    4 H                    1.0000     1.03536240     1.53490430     0.76574533
    5 O                    8.0000    -0.69697506    -0.50731733    -0.82483868
    6 H                    1.0000    -1.08722284     0.13370915     1.09887294
    7 H                    1.0000     1.65797168     0.29097802    -0.39990419
    8 H                    1.0000    -1.64481135    -0.80087813    -0.92438929
 
      Atomic Mass 
      ----------- 
 
      C                 12.000000
      H                  1.007825
      O                 15.994910
 

 Effective nuclear repulsion energy (a.u.)      76.3258439625

            Nuclear Dipole moment (a.u.) 
            ----------------------------
        X                 Y               Z
 ---------------- ---------------- ----------------
    -0.0000000000     0.0000000000    -0.0000000000
 
 
            XYZ format geometry
            -------------------
     8
 geometry
 C                    -0.33576444     0.02707915     0.30267588
 C                     1.02859642     0.46202853     0.47802541
 H                     1.45750867    -0.03482087     1.37417700
 H                     1.03536240     1.53490430     0.76574533
 O                    -0.69697506    -0.50731733    -0.82483868
 H                    -1.08722284     0.13370915     1.09887294
 H                     1.65797168     0.29097802    -0.39990419
 H                    -1.64481135    -0.80087813    -0.92438929
 
 ==============================================================================
                                internuclear distances
 ------------------------------------------------------------------------------
       center one      |      center two      | atomic units |  angstroms
 ------------------------------------------------------------------------------
    2 C                |   1 C                |     2.72632  |     1.44271
    3 H                |   2 C                |     2.09914  |     1.11082
    4 H                |   2 C                |     2.09912  |     1.11081
    5 O                |   1 C                |     2.45471  |     1.29898
    6 H                |   1 C                |     2.07869  |     1.10000
    7 H                |   2 C                |     2.06675  |     1.09368
    8 H                |   5 O                |     1.88450  |     0.99724
 ------------------------------------------------------------------------------
                         number of included internuclear distances:          7
 ==============================================================================



 ==============================================================================
                                 internuclear angles
 ------------------------------------------------------------------------------
        center 1       |       center 2       |       center 3       |  degrees
 ------------------------------------------------------------------------------
    2 C                |   1 C                |   5 O                |   119.50
    2 C                |   1 C                |   6 H                |   121.93
    5 O                |   1 C                |   6 H                |   118.57
    1 C                |   2 C                |   3 H                |   109.17
    1 C                |   2 C                |   4 H                |   109.17
    1 C                |   2 C                |   7 H                |   113.55
    3 H                |   2 C                |   4 H                |   102.75
    3 H                |   2 C                |   7 H                |   110.82
    4 H                |   2 C                |   7 H                |   110.82
    1 C                |   5 O                |   8 H                |   118.17
 ------------------------------------------------------------------------------
                            number of included internuclear angles:         10
 ==============================================================================



                              Aldehyde and Ketone set
                              -----------------------
 
                                 NWChem DFT Module
                                 -----------------
 
 
                              Aldehyde and Ketone set
 
 
                      Basis "ao basis" -> "ao basis" (spherical)
                      -----
  C (Carbon)
  ----------
            Exponent  Coefficients 
       -------------- ---------------------------------------------------------
  1 S  8.50603840E+03  0.000534
  1 S  1.27573290E+03  0.004125
  1 S  2.90311870E+02  0.021171
  1 S  8.20562000E+01  0.082418
  1 S  2.64796410E+01  0.240129
 
  2 S  9.24145850E+00  1.000000
 
  3 S  3.36435300E+00  1.000000
 
  4 S  8.71741640E-01  1.000000
 
  5 S  3.63523520E-01  1.000000
 
  6 S  1.28731350E-01  1.000000
 
  7 P  3.47094960E+01  0.005330
  7 P  7.95908830E+00  0.035866
  7 P  2.37869720E+00  0.142003
  7 P  8.15400650E-01  0.342031
 
  8 P  2.89537850E-01  1.000000
 
  9 P  1.00847540E-01  1.000000
 
  H (Hydrogen)
  ------------
            Exponent  Coefficients 
       -------------- ---------------------------------------------------------
  1 S  3.40613410E+01  0.006025
  1 S  5.12357460E+00  0.045021
  1 S  1.16466260E+00  0.201897
 
  2 S  3.27230410E-01  1.000000
 
  3 S  1.03072410E-01  1.000000
 
  O (Oxygen)
  ----------
            Exponent  Coefficients 
       -------------- ---------------------------------------------------------
  1 S  1.59026475E+04  0.000515
  1 S  2.38495378E+03  0.003982
  1 S  5.42719572E+02  0.020477
  1 S  1.53404079E+02  0.080262
  1 S  4.95457161E+01  0.237668
 
  2 S  1.73396499E+01  1.000000
 
  3 S  6.33033553E+00  1.000000
 
  4 S  1.69958822E+00  1.000000
 
  5 S  6.89544913E-01  1.000000
 
  6 S  2.39360282E-01  1.000000
 
  7 P  6.32705240E+01  0.006071
  7 P  1.46233123E+01  0.041948
  7 P  4.44895180E+00  0.161569
  7 P  1.52815132E+00  0.356828
 
  8 P  5.29973159E-01  1.000000
 
  9 P  1.75094460E-01  1.000000
 


 Summary of "ao basis" -> "ao basis" (spherical)
 ------------------------------------------------------------------------------
       Tag                 Description            Shells   Functions and Types
 ---------------- ------------------------------  ------  ---------------------
 C                        ahlrichs vtz               9       15   6s3p
 H                        ahlrichs vtz               3        3   3s
 O                        ahlrichs vtz               9       15   6s3p




 Summary of "ao basis" -> "ao basis" (spherical)
 ------------------------------------------------------------------------------
       Tag                 Description            Shells   Functions and Types
 ---------------- ------------------------------  ------  ---------------------
 C                        ahlrichs vtz               9       15   6s3p
 H                        ahlrichs vtz               3        3   3s
 O                        ahlrichs vtz               9       15   6s3p


  Caching 1-el integrals 
 
            General Information
            -------------------
          SCF calculation type: DFT
          Wavefunction type:  spin polarized.
          No. of atoms     :     8
          No. of electrons :    25
           Alpha electrons :    13
            Beta electrons :    12
          Charge           :     0
          Spin multiplicity:     2
          Use of symmetry is: off; symmetry adaption is: off
          Maximum number of iterations: ***
          This is a Direct SCF calculation.
          AO basis - number of functions:    60
                     number of shells:    42
          Convergence on energy requested:  1.00D-08
          Convergence on density requested:  1.00D-07
          Convergence on gradient requested:  1.00D-06
 
              XC Information
              --------------
                        PBE96 Method XC Functional
          PerdewBurkeErnzerhof Exchange Functional  1.000          
            Perdew 1991 LDA Correlation Functional  1.000 local    
           PerdewBurkeErnz. Correlation Functional  1.000 non-local
 
             Grid Information
             ----------------
          Grid used for XC integration:  fine      
          Radial quadrature: Mura-Knowles        
          Angular quadrature: Lebedev. 
          Tag              B.-S. Rad. Rad. Pts. Rad. Cut. Ang. Pts.
          ---              ---------- --------- --------- ---------
          C                   0.70       70          11.0       590
          H                   0.35       60          11.0       590
          O                   0.60       70          10.0       590
          Grid pruning is: on 
          Number of quadrature shells:   510
          Spatial weights used:  Erf1
 
          Convergence Information
          -----------------------
          Convergence aids based upon iterative change in 
          total energy or number of iterations. 
          Levelshifting, if invoked, occurs when the 
          HOMO/LUMO gap drops below (HL_TOL):  1.00D-02
          DIIS, if invoked, will attempt to extrapolate 
          using up to (NFOCK): 10 stored Fock matrices.

                    Damping( 0%)  Levelshifting(0.5)       DIIS
                  --------------- ------------------- ---------------
          dE  on:    start            ASAP                start   
          dE off:    2 iters        *** iters           *** iters 

 
      Screening Tolerance Information
      -------------------------------
          Density screening/tol_rho:  1.00D-12
          AO Gaussian exp screening on grid/accAOfunc:  18
          CD Gaussian exp screening on grid/accCDfunc:  20
          XC Gaussian exp screening on grid/accXCfunc:  20
          Schwarz screening/accCoul:  1.00D-12

      Dispersion Parameters
      ---------------------

           DFT-D3BJ Model   
          s6 scale factor  :        1.000000000000
          s8 scale factor  :        0.787500000000
          a1 parameter     :        0.428900000000
          a2 parameter     :        4.440700000000
              vdW contrib  :       -0.003657650852


 Forcing the number of linearly dependent vectors to be  0
 
      Superposition of Atomic Density Guess
      -------------------------------------
 
 Sum of atomic energies:        -152.62524776
   Time after variat. SCF:      0.2
   Time prior to 1st pass:      0.2

 Grid_pts file          = ./05_CH3CHOH.gridpts.00
 Record size in doubles =  12289        No. of grid_pts per rec  =   3070
 Max. records in memory =      9        Max. recs in file   =  67550051


           Memory utilization after 1st SCF pass: 
           Heap Space remaining (MW):        0.00                  62
          Stack Space remaining (MW):      288.36           288357588

   convergence    iter        energy       DeltaE   RMS-Dens  Diis-err    time
 ---------------- ----- ----------------- --------- --------- ---------  ------
 d= 0,ls=0.0,diis     1   -154.6470574884 -2.31D+02  1.96D-02  9.49D+00     0.3
                                                     1.67D-02  8.07D+00
 d= 0,ls=0.0,diis     2   -154.0498115319  5.97D-01  1.99D-02  2.99D-01     0.4
                                                     1.66D-02  2.76D-01
 d= 0,ls=0.5,diis     3   -153.8725574058  1.77D-01  6.52D-03  6.82D-01     0.5
                                                     5.67D-03  6.43D-01
 d= 0,ls=0.5,diis     4   -154.1297869303 -2.57D-01  3.46D-03  1.04D-01     0.6
                                                     2.89D-03  9.78D-02
 d= 0,ls=0.5,diis     5   -154.1787677039 -4.90D-02  1.71D-03  1.66D-02     0.8
                                                     1.42D-03  1.56D-02
 d= 0,ls=0.5,diis     6   -154.1871482472 -8.38D-03  9.06D-04  2.93D-03     0.9
                                                     7.27D-04  2.68D-03
 d= 0,ls=0.5,diis     7   -154.1888081741 -1.66D-03  4.84D-04  6.81D-04     1.0
                                                     3.90D-04  6.34D-04
 d= 0,ls=0.5,diis     8   -154.1892276214 -4.19D-04  2.79D-04  1.85D-04     1.1
                                                     2.12D-04  1.60D-04
 d= 0,ls=0.5,diis     9   -154.1893467020 -1.19D-04  1.65D-04  5.74D-05     1.2
                                                     1.21D-04  4.94D-05
 d= 0,ls=0.5,diis    10   -154.1893852806 -3.86D-05  9.71D-05  1.79D-05     1.3
                                                     6.72D-05  1.50D-05
 d= 0,ls=0.5,diis    11   -154.1893979646 -1.27D-05  5.84D-05  5.84D-06     1.4
                                                     3.84D-05  4.79D-06
 d= 0,ls=0.5,diis    12   -154.1894023153 -4.35D-06  3.57D-05  1.93D-06     1.6
                                                     2.22D-05  1.56D-06
 d= 0,ls=0.5,diis    13   -154.1894038209 -1.51D-06  2.20D-05  6.58D-07     1.7
                                                     1.29D-05  5.32D-07
 d= 0,ls=0.5,diis    14   -154.1894043574 -5.36D-07  1.39D-05  2.36D-07     1.8
                                                     7.62D-06  1.95D-07
 d= 0,ls=0.5,diis    15   -154.1894045573 -2.00D-07  8.97D-06  8.44D-08     1.9
                                                     4.54D-06  7.20D-08
 d= 0,ls=0.5,diis    16   -154.1894046327 -7.55D-08  5.88D-06  3.19D-08     2.0
                                                     2.75D-06  2.79D-08
 d= 0,ls=0.5,diis    17   -154.1894046623 -2.95D-08  3.91D-06  1.22D-08     2.1
                                                     1.68D-06  1.07D-08
 d= 0,ls=0.5,diis    18   -154.1894046739 -1.16D-08  2.65D-06  4.94D-09     2.2
                                                     1.03D-06  4.19D-09
 d= 0,ls=0.5,diis    19   -154.1894046786 -4.73D-09  1.83D-06  2.04D-09     2.4
                                                     6.39D-07  1.68D-09
 d= 0,ls=0.5,diis    20   -154.1894046806 -1.96D-09  1.28D-06  8.72D-10     2.5
                                                     4.00D-07  7.06D-10
 d= 0,ls=0.5,diis    21   -154.1894046815 -8.47D-10  9.06D-07  3.77D-10     2.6
                                                     2.48D-07  2.88D-10
 d= 0,ls=0.5,diis    22   -154.1894046818 -3.72D-10  6.48D-07  1.74D-10     2.7
                                                     1.57D-07  1.29D-10
 d= 0,ls=0.5,diis    23   -154.1894046820 -1.70D-10  4.67D-07  7.81D-11     2.8
                                                     9.90D-08  5.36D-11
 d= 0,ls=0.5,diis    24   -154.1894046821 -8.02D-11  3.39D-07  3.67D-11     2.9
                                                     6.23D-08  2.31D-11
 d= 0,ls=0.5,diis    25   -154.1894046821 -3.88D-11  2.47D-07  1.81D-11     3.1
                                                     3.97D-08  1.02D-11
 d= 0,ls=0.5,diis    26   -154.1894046821 -1.98D-11  1.83D-07  9.36D-12     3.2
                                                     2.57D-08  4.57D-12
 d= 0,ls=0.5,diis    27   -154.1894046821 -1.05D-11  1.35D-07  4.89D-12     3.3
                                                     1.68D-08  1.93D-12
 d= 0,ls=0.5,diis    28   -154.1894046821 -5.91D-12  1.02D-07  2.76D-12     3.4
                                                     1.08D-08  8.67D-13
 d= 0,ls=0.5,diis    29   -154.1894046822 -3.50D-12  7.70D-08  1.65D-12     3.5
                                                     7.14D-09  4.28D-13


         Total DFT energy =     -154.189404682155
      One electron energy =     -359.874116064708
           Coulomb energy =      150.459303964907
          Exchange energy =      -20.288017391192
       Correlation energy =       -0.808761502771
 Nuclear repulsion energy =       76.325843962461

    Dispersion correction =       -0.003657650852

 Numeric. integr. density =       24.999999572610

     Total iterative time =      3.4s


 
                    DFT Final Alpha Molecular Orbital Analysis
                    ------------------------------------------
 
 Vector    1  Occ=1.000000D+00  E=-1.878792D+01
              MO Center= -7.0D-01, -5.1D-01, -8.2D-01, r^2= 1.5D-02
   Bfn.  Coefficient  Atom+Function         Bfn.  Coefficient  Atom+Function  
  ----- ------------  ---------------      ----- ------------  ---------------
    38      0.424504  5 O  s                 39      0.366307  5 O  s          
    37      0.299502  5 O  s                 40      0.055370  5 O  s          
 
 Vector    2  Occ=1.000000D+00  E=-9.920234D+00
              MO Center= -3.4D-01,  2.7D-02,  3.0D-01, r^2= 2.8D-02
   Bfn.  Coefficient  Atom+Function         Bfn.  Coefficient  Atom+Function  
  ----- ------------  ---------------      ----- ------------  ---------------
     2      0.423861  1 C  s                  3      0.359750  1 C  s          
     1      0.308699  1 C  s                  4      0.057827  1 C  s          
 
 Vector    3  Occ=1.000000D+00  E=-9.879597D+00
              MO Center=  1.0D+00,  4.6D-01,  4.8D-01, r^2= 2.8D-02
   Bfn.  Coefficient  Atom+Function         Bfn.  Coefficient  Atom+Function  
  ----- ------------  ---------------      ----- ------------  ---------------
    17      0.424224  2 C  s                 18      0.359436  2 C  s          
    16      0.308823  2 C  s                 19      0.057650  2 C  s          
 
 Vector    4  Occ=1.000000D+00  E=-9.972546D-01
              MO Center= -7.5D-01, -4.3D-01, -5.9D-01, r^2= 5.6D-01
   Bfn.  Coefficient  Atom+Function         Bfn.  Coefficient  Atom+Function  
  ----- ------------  ---------------      ----- ------------  ---------------
    41      0.517200  5 O  s                 42      0.262335  5 O  s          
     5      0.175094  1 C  s                 39     -0.143378  5 O  s          
    38     -0.119039  5 O  s                 40      0.114606  5 O  s          
     9     -0.091444  1 C  pz                45      0.088519  5 O  pz         
    48      0.086290  5 O  pz                58      0.078413  8 H  s          
 
 Vector    5  Occ=1.000000D+00  E=-6.877839D-01
              MO Center=  3.6D-01,  2.0D-01,  2.7D-01, r^2= 1.7D+00
   Bfn.  Coefficient  Atom+Function         Bfn.  Coefficient  Atom+Function  
  ----- ------------  ---------------      ----- ------------  ---------------
    20      0.395988  2 C  s                  5      0.299991  1 C  s          
    41     -0.122295  5 O  s                 21      0.117264  2 C  s          
    18     -0.111118  2 C  s                 42     -0.101541  5 O  s          
    43      0.101982  5 O  px                17     -0.089210  2 C  s          
     3     -0.087461  1 C  s                 46      0.087730  5 O  px         
 
 Vector    6  Occ=1.000000D+00  E=-5.646273D-01
              MO Center= -1.8D-01, -1.4D-01, -2.3D-01, r^2= 2.6D+00
   Bfn.  Coefficient  Atom+Function         Bfn.  Coefficient  Atom+Function  
  ----- ------------  ---------------      ----- ------------  ---------------
    20      0.291917  2 C  s                  5     -0.255965  1 C  s          
    43     -0.200268  5 O  px                45     -0.179990  5 O  pz         
    46     -0.170437  5 O  px                59      0.144104  8 H  s          
    48     -0.139774  5 O  pz                58      0.126830  8 H  s          
    44     -0.123668  5 O  py                47     -0.100049  5 O  py         
 
 Vector    7  Occ=1.000000D+00  E=-4.884189D-01
              MO Center= -4.5D-01,  9.2D-04,  3.1D-01, r^2= 1.8D+00
   Bfn.  Coefficient  Atom+Function         Bfn.  Coefficient  Atom+Function  
  ----- ------------  ---------------      ----- ------------  ---------------
     5      0.234538  1 C  s                  9      0.207528  1 C  pz         
    43     -0.182547  5 O  px                12      0.161587  1 C  pz         
    46     -0.151723  5 O  px                52      0.141930  6 H  s          
    53      0.136914  6 H  s                 41     -0.129305  5 O  s          
    10     -0.119605  1 C  px                 7     -0.106657  1 C  px         
 
 Vector    8  Occ=1.000000D+00  E=-3.864810D-01
              MO Center=  3.1D-01,  1.1D-01,  8.4D-02, r^2= 2.1D+00
   Bfn.  Coefficient  Atom+Function         Bfn.  Coefficient  Atom+Function  
  ----- ------------  ---------------      ----- ------------  ---------------
    22     -0.252450  2 C  px                 7      0.249215  1 C  px         
    10      0.219140  1 C  px                45     -0.219618  5 O  pz         
    48     -0.183714  5 O  pz                21     -0.164608  2 C  s          
    25     -0.163207  2 C  px                 6      0.134042  1 C  s          
    13      0.132117  1 C  px                51     -0.100933  5 O  pz         
 
 Vector    9  Occ=1.000000D+00  E=-3.830411D-01
              MO Center=  2.5D-01,  1.4D-01,  1.9D-01, r^2= 2.2D+00
   Bfn.  Coefficient  Atom+Function         Bfn.  Coefficient  Atom+Function  
  ----- ------------  ---------------      ----- ------------  ---------------
    44      0.218027  5 O  py                23      0.209176  2 C  py         
     8      0.191085  1 C  py                47      0.184646  5 O  py         
    26      0.177744  2 C  py                11      0.165683  1 C  py         
    32     -0.117949  3 H  s                 35      0.117867  4 H  s          
    50      0.103301  5 O  py                31     -0.094695  3 H  s          
 
 Vector   10  Occ=1.000000D+00  E=-3.490021D-01
              MO Center=  1.0D+00,  3.8D-01,  2.6D-01, r^2= 1.8D+00
   Bfn.  Coefficient  Atom+Function         Bfn.  Coefficient  Atom+Function  
  ----- ------------  ---------------      ----- ------------  ---------------
    24      0.294791  2 C  pz                27      0.256803  2 C  pz         
    56     -0.199097  7 H  s                 55     -0.162396  7 H  s          
    30      0.124210  2 C  pz                32      0.116699  3 H  s          
    35      0.116754  4 H  s                 41      0.110523  5 O  s          
    43      0.105344  5 O  px                23      0.099657  2 C  py         
 
 Vector   11  Occ=1.000000D+00  E=-3.176382D-01
              MO Center=  1.7D-01,  3.1D-02, -3.9D-02, r^2= 2.7D+00
   Bfn.  Coefficient  Atom+Function         Bfn.  Coefficient  Atom+Function  
  ----- ------------  ---------------      ----- ------------  ---------------
    44      0.308244  5 O  py                47      0.262110  5 O  py         
    23     -0.200276  2 C  py                50      0.184190  5 O  py         
    26     -0.176757  2 C  py                32      0.147632  3 H  s          
    35     -0.147606  4 H  s                 45     -0.119524  5 O  pz         
    31      0.106878  3 H  s                 34     -0.106855  4 H  s          
 
 Vector   12  Occ=1.000000D+00  E=-2.860215D-01
              MO Center= -4.6D-01, -2.5D-01, -3.2D-01, r^2= 2.0D+00
   Bfn.  Coefficient  Atom+Function         Bfn.  Coefficient  Atom+Function  
  ----- ------------  ---------------      ----- ------------  ---------------
    45     -0.256344  5 O  pz                43      0.233682  5 O  px         
    48     -0.211963  5 O  pz                53      0.210057  6 H  s          
    54      0.206491  6 H  s                 46      0.200503  5 O  px         
    21     -0.185363  2 C  s                 51     -0.182401  5 O  pz         
     7     -0.150452  1 C  px                25      0.148933  2 C  px         
 
 Vector   13  Occ=1.000000D+00  E=-8.980334D-02
              MO Center= -2.8D-01, -1.4D-02,  1.6D-01, r^2= 1.9D+00
   Bfn.  Coefficient  Atom+Function         Bfn.  Coefficient  Atom+Function  
  ----- ------------  ---------------      ----- ------------  ---------------
    14      0.412340  1 C  py                11      0.392186  1 C  py         
     8      0.360713  1 C  py                50     -0.303855  5 O  py         
    44     -0.251243  5 O  py                47     -0.205192  5 O  py         
    15     -0.159887  1 C  pz                12     -0.152087  1 C  pz         
     9     -0.139882  1 C  pz                32      0.136601  3 H  s          
 
 Vector   14  Occ=0.000000D+00  E=-8.569702D-03
              MO Center= -1.7D+00, -7.1D-01, -6.5D-01, r^2= 3.3D+00
   Bfn.  Coefficient  Atom+Function         Bfn.  Coefficient  Atom+Function  
  ----- ------------  ---------------      ----- ------------  ---------------
    60      1.257391  8 H  s                 42     -0.651892  5 O  s          
     6     -0.647228  1 C  s                 49      0.377635  5 O  px         
    54      0.379100  6 H  s                 33      0.284563  3 H  s          
    36      0.284570  4 H  s                 59      0.278390  8 H  s          
    30     -0.214011  2 C  pz                21     -0.201416  2 C  s          
 
 Vector   15  Occ=0.000000D+00  E= 4.849253D-02
              MO Center=  1.1D+00,  6.1D-01,  8.2D-01, r^2= 5.6D+00
   Bfn.  Coefficient  Atom+Function         Bfn.  Coefficient  Atom+Function  
  ----- ------------  ---------------      ----- ------------  ---------------
    21      2.617506  2 C  s                 33     -1.137266  3 H  s          
    36     -1.137137  4 H  s                 57     -0.762289  7 H  s          
    54     -0.532844  6 H  s                 13     -0.404010  1 C  px         
    60      0.384031  8 H  s                 28      0.238948  2 C  px         
    49      0.228171  5 O  px                15      0.203588  1 C  pz         
 
 Vector   16  Occ=0.000000D+00  E= 7.110907D-02
              MO Center= -7.5D-01,  1.6D-01,  9.4D-01, r^2= 5.4D+00
   Bfn.  Coefficient  Atom+Function         Bfn.  Coefficient  Atom+Function  
  ----- ------------  ---------------      ----- ------------  ---------------
     6      2.466175  1 C  s                 54     -2.123586  6 H  s          
    21     -1.244729  2 C  s                 15      0.590279  1 C  pz         
    57      0.554468  7 H  s                 60      0.469216  8 H  s          
    28      0.444129  2 C  px                42     -0.441264  5 O  s          
    51     -0.228022  5 O  pz                13     -0.220593  1 C  px         
 
 Vector   17  Occ=0.000000D+00  E= 9.445706D-02
              MO Center=  9.8D-01,  7.3D-01,  1.2D+00, r^2= 4.4D+00
   Bfn.  Coefficient  Atom+Function         Bfn.  Coefficient  Atom+Function  
  ----- ------------  ---------------      ----- ------------  ---------------
    33      2.070838  3 H  s                 36     -2.070664  4 H  s          
    29      1.524035  2 C  py                14     -0.634120  1 C  py         
    30     -0.590933  2 C  pz                28     -0.409995  2 C  px         
    26      0.292078  2 C  py                15      0.245728  1 C  pz         
    23      0.237539  2 C  py                13      0.170369  1 C  px         
 
 Vector   18  Occ=0.000000D+00  E= 1.024522D-01
              MO Center=  1.3D+00,  3.3D-01, -6.1D-02, r^2= 4.6D+00
   Bfn.  Coefficient  Atom+Function         Bfn.  Coefficient  Atom+Function  
  ----- ------------  ---------------      ----- ------------  ---------------
    57      2.558338  7 H  s                 30      1.670863  2 C  pz         
    33     -1.202604  3 H  s                 36     -1.203251  4 H  s          
     6     -1.054675  1 C  s                 54      0.701495  6 H  s          
    28     -0.525049  2 C  px                29      0.506720  2 C  py         
    13      0.502834  1 C  px                60      0.315464  8 H  s          
 
 Vector   19  Occ=0.000000D+00  E= 1.486708D-01
              MO Center=  1.1D+00,  4.3D-01,  3.6D-01, r^2= 5.3D+00
   Bfn.  Coefficient  Atom+Function         Bfn.  Coefficient  Atom+Function  
  ----- ------------  ---------------      ----- ------------  ---------------
    28      2.466562  2 C  px                13      2.121126  1 C  px         
    21     -1.831677  2 C  s                  6      1.720176  1 C  s          
    54      1.210459  6 H  s                 29      0.885991  2 C  py         
    57     -0.836736  7 H  s                 14      0.655370  1 C  py         
    60      0.600638  8 H  s                 33     -0.578016  3 H  s          
 
 Vector   20  Occ=0.000000D+00  E= 1.863619D-01
              MO Center= -4.7D-02,  1.6D-01,  4.4D-01, r^2= 6.1D+00
   Bfn.  Coefficient  Atom+Function         Bfn.  Coefficient  Atom+Function  
  ----- ------------  ---------------      ----- ------------  ---------------
    15      1.329121  1 C  pz                60      1.112177  8 H  s          
    54     -0.993969  6 H  s                  6     -0.975625  1 C  s          
    28     -0.809680  2 C  px                42      0.798851  5 O  s          
    14      0.698237  1 C  py                13      0.679849  1 C  px         
    56      0.446896  7 H  s                 21     -0.415592  2 C  s          
 
 Vector   21  Occ=0.000000D+00  E= 2.124394D-01
              MO Center=  6.8D-01,  1.7D-01, -4.9D-02, r^2= 4.1D+00
   Bfn.  Coefficient  Atom+Function         Bfn.  Coefficient  Atom+Function  
  ----- ------------  ---------------      ----- ------------  ---------------
    29      1.660423  2 C  py                33      0.892312  3 H  s          
    36     -0.892343  4 H  s                 30     -0.643685  2 C  pz         
    11     -0.465679  1 C  py                28     -0.446341  2 C  px         
    32      0.411744  3 H  s                 35     -0.411720  4 H  s          
    14      0.275090  1 C  py                12      0.180582  1 C  pz         
 
 Vector   22  Occ=0.000000D+00  E= 2.319431D-01
              MO Center=  2.3D-01,  2.2D-01,  4.1D-01, r^2= 5.8D+00
   Bfn.  Coefficient  Atom+Function         Bfn.  Coefficient  Atom+Function  
  ----- ------------  ---------------      ----- ------------  ---------------
    14      1.626559  1 C  py                29     -1.492434  2 C  py         
    15     -0.630510  1 C  pz                30      0.578411  2 C  pz         
    11     -0.498839  1 C  py                13     -0.437838  1 C  px         
    28      0.401246  2 C  px                32     -0.330574  3 H  s          
    35      0.330495  4 H  s                 26      0.276021  2 C  py         
 
 Vector   23  Occ=0.000000D+00  E= 2.499827D-01
              MO Center=  3.8D-01,  2.1D-01,  2.8D-01, r^2= 5.9D+00
   Bfn.  Coefficient  Atom+Function         Bfn.  Coefficient  Atom+Function  
  ----- ------------  ---------------      ----- ------------  ---------------
    30     -3.505984  2 C  pz                15      3.192637  1 C  pz         
    54     -2.672772  6 H  s                 13     -2.373856  1 C  px         
    57     -1.558594  7 H  s                 42      1.426481  5 O  s          
    33      1.368347  3 H  s                 36      1.368721  4 H  s          
    29     -1.319861  2 C  py                 6     -1.208560  1 C  s          
 
 Vector   24  Occ=0.000000D+00  E= 2.631240D-01
              MO Center= -3.1D-01,  7.8D-02,  4.2D-01, r^2= 5.6D+00
   Bfn.  Coefficient  Atom+Function         Bfn.  Coefficient  Atom+Function  
  ----- ------------  ---------------      ----- ------------  ---------------
    13      3.789917  1 C  px                21     -3.031947  2 C  s          
    54      2.178552  6 H  s                  6      2.163567  1 C  s          
    28      1.577609  2 C  px                30     -1.261847  2 C  pz         
    57     -1.155435  7 H  s                 14      1.021052  1 C  py         
    49     -0.896808  5 O  px                50     -0.394959  5 O  py         
 
 Vector   25  Occ=0.000000D+00  E= 3.093055D-01
              MO Center= -3.6D-01,  1.1D-01,  5.4D-01, r^2= 3.9D+00
   Bfn.  Coefficient  Atom+Function         Bfn.  Coefficient  Atom+Function  
  ----- ------------  ---------------      ----- ------------  ---------------
     6      1.884949  1 C  s                 30     -1.380680  2 C  pz         
    57     -1.285628  7 H  s                 53     -1.210920  6 H  s          
    15      1.013280  1 C  pz                21     -0.924966  2 C  s          
    59     -0.763090  8 H  s                 33      0.603524  3 H  s          
    36      0.603875  4 H  s                 28      0.592634  2 C  px         
 
 Vector   26  Occ=0.000000D+00  E= 3.208069D-01
              MO Center= -8.9D-01, -4.8D-01, -6.1D-01, r^2= 4.4D+00
   Bfn.  Coefficient  Atom+Function         Bfn.  Coefficient  Atom+Function  
  ----- ------------  ---------------      ----- ------------  ---------------
    13      1.515264  1 C  px                60      1.405598  8 H  s          
    59     -1.298695  8 H  s                 54      1.162004  6 H  s          
    28      1.028963  2 C  px                57     -0.873856  7 H  s          
    21     -0.838238  2 C  s                  6     -0.627512  1 C  s          
    20      0.623948  2 C  s                 25     -0.584520  2 C  px         
 
 Vector   27  Occ=0.000000D+00  E= 3.730369D-01
              MO Center= -3.1D-02, -8.5D-02, -2.0D-01, r^2= 3.7D+00
   Bfn.  Coefficient  Atom+Function         Bfn.  Coefficient  Atom+Function  
  ----- ------------  ---------------      ----- ------------  ---------------
    15      2.519690  1 C  pz                54     -2.162728  6 H  s          
    13     -1.702342  1 C  px                 6      0.988053  1 C  s          
    12     -0.951852  1 C  pz                57      0.905796  7 H  s          
    51     -0.691529  5 O  pz                 5      0.541586  1 C  s          
    14      0.519255  1 C  py                11     -0.433345  1 C  py         
 
 Vector   28  Occ=0.000000D+00  E= 4.187513D-01
              MO Center=  1.1D+00,  6.5D-01,  9.2D-01, r^2= 3.8D+00
   Bfn.  Coefficient  Atom+Function         Bfn.  Coefficient  Atom+Function  
  ----- ------------  ---------------      ----- ------------  ---------------
    33      2.450757  3 H  s                 36     -2.450475  4 H  s          
    29      1.845833  2 C  py                32     -1.136720  3 H  s          
    35      1.136734  4 H  s                 26     -0.970191  2 C  py         
    30     -0.715647  2 C  pz                28     -0.496604  2 C  px         
    27      0.376076  2 C  pz                14     -0.339157  1 C  py         
 
 Vector   29  Occ=0.000000D+00  E= 4.404106D-01
              MO Center=  1.5D-01,  1.2D-01,  2.0D-01, r^2= 5.4D+00
   Bfn.  Coefficient  Atom+Function         Bfn.  Coefficient  Atom+Function  
  ----- ------------  ---------------      ----- ------------  ---------------
    57     -2.685751  7 H  s                 54      2.656198  6 H  s          
    13      1.664621  1 C  px                28      1.376922  2 C  px         
     6     -1.111091  1 C  s                 30     -1.061888  2 C  pz         
    56      1.063581  7 H  s                 25     -0.838633  2 C  px         
    10     -0.808300  1 C  px                15     -0.811487  1 C  pz         
 
 Vector   30  Occ=0.000000D+00  E= 4.642753D-01
              MO Center=  2.4D-01,  2.5D-01,  4.8D-01, r^2= 5.9D+00
   Bfn.  Coefficient  Atom+Function         Bfn.  Coefficient  Atom+Function  
  ----- ------------  ---------------      ----- ------------  ---------------
    54     -1.852111  6 H  s                 21     -1.772631  2 C  s          
     6      1.731235  1 C  s                 33      1.668216  3 H  s          
    36      1.667450  4 H  s                 13     -1.566510  1 C  px         
    20      1.528074  2 C  s                 51     -1.202218  5 O  pz         
    30     -1.105826  2 C  pz                60     -0.909331  8 H  s          
 
 Vector   31  Occ=0.000000D+00  E= 4.710288D-01
              MO Center= -5.4D-01, -3.9D-01, -6.2D-01, r^2= 4.0D+00
   Bfn.  Coefficient  Atom+Function         Bfn.  Coefficient  Atom+Function  
  ----- ------------  ---------------      ----- ------------  ---------------
    50      1.459219  5 O  py                33     -1.153796  3 H  s          
    36      1.155422  4 H  s                 29     -0.805923  2 C  py         
    14     -0.684306  1 C  py                47     -0.609040  5 O  py         
    51     -0.566565  5 O  pz                49     -0.392735  5 O  px         
    26      0.328258  2 C  py                30      0.311319  2 C  pz         
 
 Vector   32  Occ=0.000000D+00  E= 4.817339D-01
              MO Center=  4.7D-01,  2.2D-01,  2.3D-01, r^2= 4.9D+00
   Bfn.  Coefficient  Atom+Function         Bfn.  Coefficient  Atom+Function  
  ----- ------------  ---------------      ----- ------------  ---------------
     6      3.936005  1 C  s                 20     -1.775987  2 C  s          
    57     -1.616499  7 H  s                  5     -1.407721  1 C  s          
    21      1.321694  2 C  s                 54     -1.321509  6 H  s          
    28      1.049426  2 C  px                56      1.027154  7 H  s          
    51     -0.794551  5 O  pz                42     -0.615949  5 O  s          
 
 Vector   33  Occ=0.000000D+00  E= 4.887359D-01
              MO Center=  3.2D-01,  2.2D-01,  3.4D-01, r^2= 3.8D+00
   Bfn.  Coefficient  Atom+Function         Bfn.  Coefficient  Atom+Function  
  ----- ------------  ---------------      ----- ------------  ---------------
     6      4.958782  1 C  s                  5     -2.373395  1 C  s          
    28      1.840937  2 C  px                13      1.812961  1 C  px         
    33     -1.176154  3 H  s                 36     -1.176244  4 H  s          
    21     -0.931866  2 C  s                 30      0.917827  2 C  pz         
    29      0.850880  2 C  py                10     -0.641608  1 C  px         
 
 Vector   34  Occ=0.000000D+00  E= 5.293051D-01
              MO Center= -3.9D-01, -2.5D-01, -3.7D-01, r^2= 4.3D+00
   Bfn.  Coefficient  Atom+Function         Bfn.  Coefficient  Atom+Function  
  ----- ------------  ---------------      ----- ------------  ---------------
    13      1.968201  1 C  px                51      1.347992  5 O  pz         
    60      1.336132  8 H  s                  5     -0.949320  1 C  s          
    57     -0.902143  7 H  s                 53      0.820090  6 H  s          
    21     -0.659974  2 C  s                 28      0.643238  2 C  px         
    32     -0.558222  3 H  s                 35     -0.558457  4 H  s          
 
 Vector   35  Occ=0.000000D+00  E= 6.244112D-01
              MO Center= -2.1D-01, -2.9D-01, -6.1D-01, r^2= 4.2D+00
   Bfn.  Coefficient  Atom+Function         Bfn.  Coefficient  Atom+Function  
  ----- ------------  ---------------      ----- ------------  ---------------
    21      5.825241  2 C  s                 13     -4.190478  1 C  px         
    49      3.168649  5 O  px                54     -3.083785  6 H  s          
    15      2.544316  1 C  pz                 6     -1.413658  1 C  s          
    59      1.360900  8 H  s                 30     -0.935796  2 C  pz         
    57     -0.761708  7 H  s                 20     -0.747185  2 C  s          
 
 Vector   36  Occ=0.000000D+00  E= 6.919171D-01
              MO Center=  7.4D-01,  3.0D-01,  2.6D-01, r^2= 4.7D+00
   Bfn.  Coefficient  Atom+Function         Bfn.  Coefficient  Atom+Function  
  ----- ------------  ---------------      ----- ------------  ---------------
    21      9.721259  2 C  s                  6     -5.933451  1 C  s          
    20     -2.618156  2 C  s                 28     -2.341389  2 C  px         
    13     -2.282454  1 C  px                49     -1.322804  5 O  px         
     5      1.182032  1 C  s                 32     -1.183033  3 H  s          
    35     -1.182964  4 H  s                 56     -1.075324  7 H  s          
 
 Vector   37  Occ=0.000000D+00  E= 1.052172D+00
              MO Center= -5.4D-01, -4.0D-01, -6.5D-01, r^2= 2.5D+00
   Bfn.  Coefficient  Atom+Function         Bfn.  Coefficient  Atom+Function  
  ----- ------------  ---------------      ----- ------------  ---------------
    42      5.796739  5 O  s                  6     -3.017750  1 C  s          
    41     -2.972738  5 O  s                 15      1.971554  1 C  pz         
    51      1.161735  5 O  pz                30     -1.034732  2 C  pz         
    54     -0.853672  6 H  s                 12      0.815553  1 C  pz         
    59     -0.762562  8 H  s                 21      0.728785  2 C  s          
 
 Vector   38  Occ=0.000000D+00  E= 1.342800D+00
              MO Center=  3.2D-01,  2.2D-01,  3.4D-01, r^2= 2.3D+00
   Bfn.  Coefficient  Atom+Function         Bfn.  Coefficient  Atom+Function  
  ----- ------------  ---------------      ----- ------------  ---------------
    10      1.802355  1 C  px                25      1.785791  2 C  px         
    12      1.206042  1 C  pz                21     -1.143009  2 C  s          
    11      0.951959  1 C  py                42      0.936075  5 O  s          
    28     -0.902296  2 C  px                 6     -0.769467  1 C  s          
    22     -0.747256  2 C  px                26      0.659780  2 C  py         
 
 Vector   39  Occ=0.000000D+00  E= 1.345608D+00
              MO Center= -2.6D-01,  5.5D-02,  3.2D-01, r^2= 1.6D+00
   Bfn.  Coefficient  Atom+Function         Bfn.  Coefficient  Atom+Function  
  ----- ------------  ---------------      ----- ------------  ---------------
    11      1.487564  1 C  py                 8     -1.104263  1 C  py         
    14     -0.782417  1 C  py                12     -0.576382  1 C  pz         
     9      0.427999  1 C  pz                10     -0.399550  1 C  px         
    23     -0.312857  2 C  py                15      0.303210  1 C  pz         
     7      0.296823  1 C  px                26      0.288343  2 C  py         
 
 Vector   40  Occ=0.000000D+00  E= 1.412842D+00
              MO Center=  4.8D-01,  3.1D-01,  4.8D-01, r^2= 2.0D+00
   Bfn.  Coefficient  Atom+Function         Bfn.  Coefficient  Atom+Function  
  ----- ------------  ---------------      ----- ------------  ---------------
    25     -1.451205  2 C  px                12      1.387212  1 C  pz         
    57     -1.188475  7 H  s                 54      1.164088  6 H  s          
    28      1.097560  2 C  px                15     -0.869703  1 C  pz         
    10     -0.842507  1 C  px                13      0.846515  1 C  px         
     5     -0.804299  1 C  s                 27      0.798944  2 C  pz         
 
 Vector   41  Occ=0.000000D+00  E= 1.487814D+00
              MO Center=  9.1D-01,  3.8D-01,  3.5D-01, r^2= 1.8D+00
   Bfn.  Coefficient  Atom+Function         Bfn.  Coefficient  Atom+Function  
  ----- ------------  ---------------      ----- ------------  ---------------
    26      2.096092  2 C  py                29     -1.675023  2 C  py         
    33     -1.195476  3 H  s                 36      1.195241  4 H  s          
    23     -1.144829  2 C  py                27     -0.812949  2 C  pz         
    32      0.695185  3 H  s                 35     -0.694879  4 H  s          
    11     -0.679840  1 C  py                30      0.649653  2 C  pz         
 
 Vector   42  Occ=0.000000D+00  E= 1.566761D+00
              MO Center=  1.3D-01,  1.8D-01,  3.7D-01, r^2= 2.4D+00
   Bfn.  Coefficient  Atom+Function         Bfn.  Coefficient  Atom+Function  
  ----- ------------  ---------------      ----- ------------  ---------------
    10      1.798042  1 C  px                13     -1.095245  1 C  px         
    20     -0.985874  2 C  s                  7     -0.964439  1 C  px         
    27     -0.942490  2 C  pz                30      0.784553  2 C  pz         
     5     -0.736411  1 C  s                 57      0.647966  7 H  s          
    11      0.643161  1 C  py                 6      0.622358  1 C  s          
 
 Vector   43  Occ=0.000000D+00  E= 1.625447D+00
              MO Center=  4.4D-01,  2.9D-01,  4.5D-01, r^2= 2.4D+00
   Bfn.  Coefficient  Atom+Function         Bfn.  Coefficient  Atom+Function  
  ----- ------------  ---------------      ----- ------------  ---------------
    27     -2.082272  2 C  pz                12      1.944423  1 C  pz         
    30      1.738018  2 C  pz                54      1.310118  6 H  s          
    15     -1.279930  1 C  pz                57      1.265880  7 H  s          
    53     -1.084615  6 H  s                 56     -1.075690  7 H  s          
    10     -1.052966  1 C  px                13      0.901627  1 C  px         
 
 Vector   44  Occ=0.000000D+00  E= 2.028573D+00
              MO Center= -1.6D+00, -8.0D-01, -9.4D-01, r^2= 1.1D+00
   Bfn.  Coefficient  Atom+Function         Bfn.  Coefficient  Atom+Function  
  ----- ------------  ---------------      ----- ------------  ---------------
    59      2.295247  8 H  s                 58     -1.308830  8 H  s          
    60     -1.122390  8 H  s                 46      0.767022  5 O  px         
    43     -0.545888  5 O  px                42     -0.542617  5 O  s          
    15     -0.357402  1 C  pz                21     -0.236107  2 C  s          
    40      0.215664  5 O  s                 47      0.215651  5 O  py         
 
 Vector   45  Occ=0.000000D+00  E= 2.091636D+00
              MO Center=  8.4D-01,  4.5D-01,  5.8D-01, r^2= 2.9D+00
   Bfn.  Coefficient  Atom+Function         Bfn.  Coefficient  Atom+Function  
  ----- ------------  ---------------      ----- ------------  ---------------
    20      2.446597  2 C  s                  5     -2.222580  1 C  s          
    19     -1.901231  2 C  s                  4      1.573226  1 C  s          
    56     -1.299126  7 H  s                 32     -1.241406  3 H  s          
    35     -1.241256  4 H  s                 54     -0.999522  6 H  s          
    53      0.843832  6 H  s                 57      0.700247  7 H  s          
 
 Vector   46  Occ=0.000000D+00  E= 2.202663D+00
              MO Center= -6.0D-01,  1.9D-01,  9.1D-01, r^2= 2.3D+00
   Bfn.  Coefficient  Atom+Function         Bfn.  Coefficient  Atom+Function  
  ----- ------------  ---------------      ----- ------------  ---------------
    53      1.868414  6 H  s                  5     -1.692605  1 C  s          
    52     -1.253518  6 H  s                  4      1.216490  1 C  s          
     6      1.042296  1 C  s                 20     -0.940714  2 C  s          
    19      0.871822  2 C  s                 54     -0.622282  6 H  s          
    32      0.609880  3 H  s                 35      0.610065  4 H  s          
 
 Vector   47  Occ=0.000000D+00  E= 2.290779D+00
              MO Center=  1.3D+00,  7.7D-01,  1.1D+00, r^2= 2.0D+00
   Bfn.  Coefficient  Atom+Function         Bfn.  Coefficient  Atom+Function  
  ----- ------------  ---------------      ----- ------------  ---------------
    32      1.611060  3 H  s                 35     -1.611007  4 H  s          
    31     -1.126321  3 H  s                 34      1.126259  4 H  s          
    33     -0.963437  3 H  s                 36      0.963382  4 H  s          
    14     -0.187829  1 C  py                11      0.164147  1 C  py         
    26      0.131331  2 C  py                 8     -0.101547  1 C  py         
 
 Vector   48  Occ=0.000000D+00  E= 2.301039D+00
              MO Center=  1.5D+00,  4.2D-01,  3.4D-02, r^2= 2.0D+00
   Bfn.  Coefficient  Atom+Function         Bfn.  Coefficient  Atom+Function  
  ----- ------------  ---------------      ----- ------------  ---------------
    56      1.801648  7 H  s                 55     -1.314630  7 H  s          
    57     -0.837129  7 H  s                 32     -0.792321  3 H  s          
    35     -0.792519  4 H  s                 31      0.610342  3 H  s          
    34      0.610497  4 H  s                 15     -0.486149  1 C  pz         
    12      0.414743  1 C  pz                33      0.382953  3 H  s          
 
 Vector   49  Occ=0.000000D+00  E= 2.421360D+00
              MO Center= -2.2D-01,  1.4D-01,  5.1D-01, r^2= 1.8D+00
   Bfn.  Coefficient  Atom+Function         Bfn.  Coefficient  Atom+Function  
  ----- ------------  ---------------      ----- ------------  ---------------
     5      4.289182  1 C  s                  4     -3.344515  1 C  s          
     6     -3.229776  1 C  s                 20      1.491211  2 C  s          
    19     -1.331805  2 C  s                 53      0.930102  6 H  s          
    21     -0.904826  2 C  s                 28     -0.781518  2 C  px         
    52     -0.780932  6 H  s                  3      0.661751  1 C  s          
 
 Vector   50  Occ=0.000000D+00  E= 2.477149D+00
              MO Center= -6.9D-01, -5.0D-01, -8.1D-01, r^2= 1.0D+00
   Bfn.  Coefficient  Atom+Function         Bfn.  Coefficient  Atom+Function  
  ----- ------------  ---------------      ----- ------------  ---------------
    47      1.561058  5 O  py                44     -1.089860  5 O  py         
    50     -0.878648  5 O  py                48     -0.605384  5 O  pz         
    45      0.422639  5 O  pz                46     -0.419929  5 O  px         
    14      0.403856  1 C  py                51      0.340749  5 O  pz         
    43      0.293171  5 O  px                11     -0.247453  1 C  py         
 
 Vector   51  Occ=0.000000D+00  E= 2.616730D+00
              MO Center= -3.4D-01, -2.8D-01, -4.7D-01, r^2= 2.3D+00
   Bfn.  Coefficient  Atom+Function         Bfn.  Coefficient  Atom+Function  
  ----- ------------  ---------------      ----- ------------  ---------------
    21     -2.300862  2 C  s                 20      2.115660  2 C  s          
     6      1.665313  1 C  s                 19     -1.610256  2 C  s          
    48      1.438895  5 O  pz                45     -0.938052  5 O  pz         
    51     -0.848898  5 O  pz                15      0.710455  1 C  pz         
    13     -0.579578  1 C  px                49      0.567407  5 O  px         
 
 Vector   52  Occ=0.000000D+00  E= 2.769769D+00
              MO Center=  5.6D-01,  2.2D-01,  1.9D-01, r^2= 2.7D+00
   Bfn.  Coefficient  Atom+Function         Bfn.  Coefficient  Atom+Function  
  ----- ------------  ---------------      ----- ------------  ---------------
    21      6.440287  2 C  s                 20     -4.328389  2 C  s          
     6     -3.361514  1 C  s                 19      2.939991  2 C  s          
     5      2.139240  1 C  s                 13     -2.044773  1 C  px         
     4     -1.496025  1 C  s                 28     -1.156878  2 C  px         
    32     -0.982957  3 H  s                 35     -0.982955  4 H  s          
 
 Vector   53  Occ=0.000000D+00  E= 2.947724D+00
              MO Center= -6.7D-01, -4.8D-01, -7.8D-01, r^2= 1.5D+00
   Bfn.  Coefficient  Atom+Function         Bfn.  Coefficient  Atom+Function  
  ----- ------------  ---------------      ----- ------------  ---------------
    46     -1.742504  5 O  px                49      1.695050  5 O  px         
    21      1.665023  2 C  s                 20     -1.394063  2 C  s          
    13     -1.344611  1 C  px                54     -1.159668  6 H  s          
    59      1.121226  8 H  s                 43      1.011572  5 O  px         
    15      0.994154  1 C  pz                19      0.943087  2 C  s          
 
 Vector   54  Occ=0.000000D+00  E= 4.561641D+00
              MO Center= -6.6D-01, -4.8D-01, -7.8D-01, r^2= 8.5D-01
   Bfn.  Coefficient  Atom+Function         Bfn.  Coefficient  Atom+Function  
  ----- ------------  ---------------      ----- ------------  ---------------
    41      4.858185  5 O  s                 40     -3.852925  5 O  s          
    42     -3.555917  5 O  s                  6      1.569275  1 C  s          
    15     -1.026875  1 C  pz                39      0.814320  5 O  s          
    30      0.624820  2 C  pz                21     -0.563987  2 C  s          
    51     -0.542275  5 O  pz                59      0.525072  8 H  s          
 
 Vector   55  Occ=0.000000D+00  E= 1.152798D+01
              MO Center= -2.5D-02,  1.3D-01,  3.5D-01, r^2= 7.2D-01
   Bfn.  Coefficient  Atom+Function         Bfn.  Coefficient  Atom+Function  
  ----- ------------  ---------------      ----- ------------  ---------------
     3      2.865659  1 C  s                  4     -2.866200  1 C  s          
     5      2.338206  1 C  s                 18      1.550237  2 C  s          
    19     -1.557739  2 C  s                  2     -1.509342  1 C  s          
    20      1.237759  2 C  s                  6     -1.122121  1 C  s          
    17     -0.814567  2 C  s                 21     -0.675060  2 C  s          
 
 Vector   56  Occ=0.000000D+00  E= 1.173330D+01
              MO Center=  7.3D-01,  3.7D-01,  4.4D-01, r^2= 7.0D-01
   Bfn.  Coefficient  Atom+Function         Bfn.  Coefficient  Atom+Function  
  ----- ------------  ---------------      ----- ------------  ---------------
    19     -3.035504  2 C  s                 18      2.897467  2 C  s          
    20      2.770069  2 C  s                 21     -2.374260  2 C  s          
     4      1.627352  1 C  s                  3     -1.553188  1 C  s          
     5     -1.543680  1 C  s                 17     -1.513872  2 C  s          
     6      1.421571  1 C  s                  2      0.813448  1 C  s          
 
 Vector   57  Occ=0.000000D+00  E= 2.185900D+01
              MO Center= -6.9D-01, -5.0D-01, -8.2D-01, r^2= 2.0D-01
   Bfn.  Coefficient  Atom+Function         Bfn.  Coefficient  Atom+Function  
  ----- ------------  ---------------      ----- ------------  ---------------
    39      3.313431  5 O  s                 40     -3.182124  5 O  s          
    41      2.498228  5 O  s                 38     -1.740562  5 O  s          
    42     -1.487226  5 O  s                  6      0.599803  1 C  s          
    15     -0.423064  1 C  pz                30      0.248705  2 C  pz         
    51     -0.224123  5 O  pz                21     -0.184130  2 C  s          
 
 Vector   58  Occ=0.000000D+00  E= 6.247696D+01
              MO Center= -2.0D-02,  1.3D-01,  3.4D-01, r^2= 4.5D-01
   Bfn.  Coefficient  Atom+Function         Bfn.  Coefficient  Atom+Function  
  ----- ------------  ---------------      ----- ------------  ---------------
     2      2.575703  1 C  s                  3     -1.950766  1 C  s          
     1     -1.527011  1 C  s                 17      1.411384  2 C  s          
     4      1.268375  1 C  s                 18     -1.069902  2 C  s          
     5     -0.981727  1 C  s                 16     -0.837125  2 C  s          
    19      0.698079  2 C  s                 20     -0.527404  2 C  s          
 
 Vector   59  Occ=0.000000D+00  E= 6.268469D+01
              MO Center=  7.1D-01,  3.6D-01,  4.4D-01, r^2= 4.5D-01
   Bfn.  Coefficient  Atom+Function         Bfn.  Coefficient  Atom+Function  
  ----- ------------  ---------------      ----- ------------  ---------------
    17      2.589677  2 C  s                 18     -1.980094  2 C  s          
    16     -1.528627  2 C  s                  2     -1.420637  1 C  s          
    19      1.349067  2 C  s                 20     -1.167751  2 C  s          
     3      1.085203  1 C  s                 21      0.999630  2 C  s          
     1      0.838211  1 C  s                  4     -0.739866  1 C  s          
 
 Vector   60  Occ=0.000000D+00  E= 1.178034D+02
              MO Center= -7.0D-01, -5.1D-01, -8.2D-01, r^2= 4.3D-02
   Bfn.  Coefficient  Atom+Function         Bfn.  Coefficient  Atom+Function  
  ----- ------------  ---------------      ----- ------------  ---------------
    38      2.966968  5 O  s                 39     -2.267268  5 O  s          
    37     -1.755875  5 O  s                 40      1.418998  5 O  s          
    41     -1.051976  5 O  s                 42      0.629188  5 O  s          
     6     -0.258746  1 C  s                 15      0.181945  1 C  pz         
    30     -0.106960  2 C  pz                51      0.095254  5 O  pz         
 
 
                     DFT Final Beta Molecular Orbital Analysis
                     -----------------------------------------
 
 Vector    1  Occ=1.000000D+00  E=-1.878271D+01
              MO Center= -7.0D-01, -5.1D-01, -8.2D-01, r^2= 1.5D-02
   Bfn.  Coefficient  Atom+Function         Bfn.  Coefficient  Atom+Function  
  ----- ------------  ---------------      ----- ------------  ---------------
    38      0.424673  5 O  s                 39      0.366180  5 O  s          
    37      0.299556  5 O  s                 40      0.055133  5 O  s          
 
 Vector    2  Occ=1.000000D+00  E=-9.908583D+00
              MO Center= -3.4D-01,  2.7D-02,  3.0D-01, r^2= 2.8D-02
   Bfn.  Coefficient  Atom+Function         Bfn.  Coefficient  Atom+Function  
  ----- ------------  ---------------      ----- ------------  ---------------
     2      0.424357  1 C  s                  3      0.359551  1 C  s          
     1      0.308955  1 C  s                  4      0.056569  1 C  s          
 
 Vector    3  Occ=1.000000D+00  E=-9.880370D+00
              MO Center=  1.0D+00,  4.6D-01,  4.8D-01, r^2= 2.8D-02
   Bfn.  Coefficient  Atom+Function         Bfn.  Coefficient  Atom+Function  
  ----- ------------  ---------------      ----- ------------  ---------------
    17      0.424201  2 C  s                 18      0.359423  2 C  s          
    16      0.308811  2 C  s                 19      0.057753  2 C  s          
 
 Vector    4  Occ=1.000000D+00  E=-9.858280D-01
              MO Center= -7.6D-01, -4.3D-01, -5.9D-01, r^2= 5.5D-01
   Bfn.  Coefficient  Atom+Function         Bfn.  Coefficient  Atom+Function  
  ----- ------------  ---------------      ----- ------------  ---------------
    41      0.518657  5 O  s                 42      0.272515  5 O  s          
     5      0.162195  1 C  s                 39     -0.142818  5 O  s          
    38     -0.119286  5 O  s                 40      0.111979  5 O  s          
     9     -0.091399  1 C  pz                48      0.091394  5 O  pz         
    45      0.088820  5 O  pz                58      0.080539  8 H  s          
 
 Vector    5  Occ=1.000000D+00  E=-6.774127D-01
              MO Center=  4.7D-01,  2.4D-01,  3.0D-01, r^2= 1.7D+00
   Bfn.  Coefficient  Atom+Function         Bfn.  Coefficient  Atom+Function  
  ----- ------------  ---------------      ----- ------------  ---------------
    20      0.429524  2 C  s                  5      0.257090  1 C  s          
    21      0.151354  2 C  s                 18     -0.116802  2 C  s          
    41     -0.110031  5 O  s                 43      0.097289  5 O  px         
    17     -0.094211  2 C  s                  7      0.088676  1 C  px         
    46      0.085261  5 O  px                 3     -0.078919  1 C  s          
 
 Vector    6  Occ=1.000000D+00  E=-5.568384D-01
              MO Center= -2.9D-01, -2.0D-01, -3.2D-01, r^2= 2.4D+00
   Bfn.  Coefficient  Atom+Function         Bfn.  Coefficient  Atom+Function  
  ----- ------------  ---------------      ----- ------------  ---------------
    20     -0.265865  2 C  s                  5      0.243577  1 C  s          
    43      0.215480  5 O  px                45      0.184279  5 O  pz         
    46      0.184633  5 O  px                59     -0.158396  8 H  s          
    48      0.149146  5 O  pz                58     -0.135536  8 H  s          
    44      0.129423  5 O  py                47      0.107501  5 O  py         
 
 Vector    7  Occ=1.000000D+00  E=-4.762264D-01
              MO Center= -4.2D-01,  2.8D-02,  3.7D-01, r^2= 1.8D+00
   Bfn.  Coefficient  Atom+Function         Bfn.  Coefficient  Atom+Function  
  ----- ------------  ---------------      ----- ------------  ---------------
     5      0.237312  1 C  s                  9      0.196216  1 C  pz         
    43     -0.166539  5 O  px                53      0.163821  6 H  s          
    12      0.152236  1 C  pz                52      0.149415  6 H  s          
    41     -0.138156  5 O  s                 46     -0.138162  5 O  px         
    10     -0.116430  1 C  px                 7     -0.104899  1 C  px         
 
 Vector    8  Occ=1.000000D+00  E=-3.788259D-01
              MO Center=  3.2D-01,  1.1D-01,  7.0D-02, r^2= 2.1D+00
   Bfn.  Coefficient  Atom+Function         Bfn.  Coefficient  Atom+Function  
  ----- ------------  ---------------      ----- ------------  ---------------
    22     -0.261882  2 C  px                 7      0.244459  1 C  px         
    45     -0.218362  5 O  pz                10      0.206236  1 C  px         
    48     -0.182666  5 O  pz                25     -0.177784  2 C  px         
    21     -0.159079  2 C  s                 13      0.128528  1 C  px         
     6      0.119887  1 C  s                 51     -0.101743  5 O  pz         
 
 Vector    9  Occ=1.000000D+00  E=-3.624422D-01
              MO Center=  6.0D-01,  3.1D-01,  3.9D-01, r^2= 2.1D+00
   Bfn.  Coefficient  Atom+Function         Bfn.  Coefficient  Atom+Function  
  ----- ------------  ---------------      ----- ------------  ---------------
    23      0.251849  2 C  py                26      0.222171  2 C  py         
    44      0.165978  5 O  py                47      0.144096  5 O  py         
    32     -0.142962  3 H  s                 35      0.142925  4 H  s          
     8      0.138459  1 C  py                31     -0.114573  3 H  s          
    34      0.114540  4 H  s                 11      0.111242  1 C  py         
 
 Vector   10  Occ=1.000000D+00  E=-3.469617D-01
              MO Center=  1.0D+00,  3.9D-01,  2.9D-01, r^2= 1.8D+00
   Bfn.  Coefficient  Atom+Function         Bfn.  Coefficient  Atom+Function  
  ----- ------------  ---------------      ----- ------------  ---------------
    24      0.296968  2 C  pz                27      0.261679  2 C  pz         
    56     -0.194994  7 H  s                 55     -0.158742  7 H  s          
    30      0.123717  2 C  pz                32      0.114765  3 H  s          
    35      0.114816  4 H  s                 41      0.110796  5 O  s          
    23      0.103439  2 C  py                43      0.100594  5 O  px         
 
 Vector   11  Occ=1.000000D+00  E=-2.998725D-01
              MO Center= -1.7D-01, -1.7D-01, -3.1D-01, r^2= 2.3D+00
   Bfn.  Coefficient  Atom+Function         Bfn.  Coefficient  Atom+Function  
  ----- ------------  ---------------      ----- ------------  ---------------
    44      0.346846  5 O  py                47      0.298971  5 O  py         
    50      0.219220  5 O  py                23     -0.155949  2 C  py         
    26     -0.138691  2 C  py                45     -0.134494  5 O  pz         
    32      0.116181  3 H  s                 35     -0.116164  4 H  s          
    48     -0.115929  5 O  pz                 8      0.100684  1 C  py         
 
 Vector   12  Occ=1.000000D+00  E=-2.807565D-01
              MO Center= -4.6D-01, -2.5D-01, -3.2D-01, r^2= 2.0D+00
   Bfn.  Coefficient  Atom+Function         Bfn.  Coefficient  Atom+Function  
  ----- ------------  ---------------      ----- ------------  ---------------
    45      0.257171  5 O  pz                43     -0.231033  5 O  px         
    53     -0.223160  6 H  s                 54     -0.221105  6 H  s          
    48      0.213999  5 O  pz                46     -0.197508  5 O  px         
    21      0.182835  2 C  s                 51      0.183543  5 O  pz         
    25     -0.151234  2 C  px                42     -0.149738  5 O  s          
 
 Vector   13  Occ=0.000000D+00  E=-2.840600D-02
              MO Center= -2.6D-01,  2.3D-02,  2.4D-01, r^2= 2.1D+00
   Bfn.  Coefficient  Atom+Function         Bfn.  Coefficient  Atom+Function  
  ----- ------------  ---------------      ----- ------------  ---------------
    14      0.515952  1 C  py                11      0.361664  1 C  py         
     8      0.344821  1 C  py                50     -0.314963  5 O  py         
    44     -0.227818  5 O  py                15     -0.200063  1 C  pz         
    33      0.186999  3 H  s                 36     -0.186898  4 H  s          
    47     -0.180017  5 O  py                32      0.151179  3 H  s          
 
 Vector   14  Occ=0.000000D+00  E=-5.934305D-03
              MO Center= -1.7D+00, -7.3D-01, -6.8D-01, r^2= 3.2D+00
   Bfn.  Coefficient  Atom+Function         Bfn.  Coefficient  Atom+Function  
  ----- ------------  ---------------      ----- ------------  ---------------
    60      1.287224  8 H  s                  6     -0.682190  1 C  s          
    42     -0.637943  5 O  s                 49      0.388259  5 O  px         
    54      0.377032  6 H  s                 59      0.277628  8 H  s          
    33      0.261501  3 H  s                 36      0.261516  4 H  s          
    30     -0.201213  2 C  pz                43      0.189186  5 O  px         
 
 Vector   15  Occ=0.000000D+00  E= 5.217688D-02
              MO Center=  1.2D+00,  6.2D-01,  7.9D-01, r^2= 5.5D+00
   Bfn.  Coefficient  Atom+Function         Bfn.  Coefficient  Atom+Function  
  ----- ------------  ---------------      ----- ------------  ---------------
    21      2.600133  2 C  s                 33     -1.091501  3 H  s          
    36     -1.091457  4 H  s                 57     -0.870851  7 H  s          
    54     -0.554750  6 H  s                 13     -0.423675  1 C  px         
    60      0.349873  8 H  s                 28      0.262512  2 C  px         
    15      0.225319  1 C  pz                49      0.218544  5 O  px         
 
 Vector   16  Occ=0.000000D+00  E= 7.788515D-02
              MO Center= -6.4D-01,  1.5D-01,  8.3D-01, r^2= 5.9D+00
   Bfn.  Coefficient  Atom+Function         Bfn.  Coefficient  Atom+Function  
  ----- ------------  ---------------      ----- ------------  ---------------
     6      2.272915  1 C  s                 54     -2.165183  6 H  s          
    21     -1.130924  2 C  s                 57      0.836912  7 H  s          
    15      0.631017  1 C  pz                60      0.519257  8 H  s          
    42     -0.367663  5 O  s                 28      0.345333  2 C  px         
    13     -0.277366  1 C  px                51     -0.190527  5 O  pz         
 
 Vector   17  Occ=0.000000D+00  E= 1.007131D-01
              MO Center=  9.9D-01,  7.4D-01,  1.2D+00, r^2= 4.4D+00
   Bfn.  Coefficient  Atom+Function         Bfn.  Coefficient  Atom+Function  
  ----- ------------  ---------------      ----- ------------  ---------------
    33      2.083382  3 H  s                 36     -2.083178  4 H  s          
    29      1.518888  2 C  py                14     -0.613131  1 C  py         
    30     -0.588914  2 C  pz                28     -0.408630  2 C  px         
    26      0.287860  2 C  py                15      0.237585  1 C  pz         
    23      0.238760  2 C  py                13      0.164733  1 C  px         
 
 Vector   18  Occ=0.000000D+00  E= 1.065182D-01
              MO Center=  1.2D+00,  3.8D-01,  1.3D-01, r^2= 5.0D+00
   Bfn.  Coefficient  Atom+Function         Bfn.  Coefficient  Atom+Function  
  ----- ------------  ---------------      ----- ------------  ---------------
    57      2.476196  7 H  s                 30      1.698305  2 C  pz         
    33     -1.274577  3 H  s                 36     -1.275121  4 H  s          
     6     -1.246221  1 C  s                 54      0.998085  6 H  s          
    28     -0.571903  2 C  px                13      0.529326  1 C  px         
    29      0.504706  2 C  py                15     -0.404050  1 C  pz         
 
 Vector   19  Occ=0.000000D+00  E= 1.525068D-01
              MO Center=  1.1D+00,  4.4D-01,  3.8D-01, r^2= 5.3D+00
   Bfn.  Coefficient  Atom+Function         Bfn.  Coefficient  Atom+Function  
  ----- ------------  ---------------      ----- ------------  ---------------
    28      2.509207  2 C  px                13      2.166859  1 C  px         
    21     -1.900969  2 C  s                  6      1.869326  1 C  s          
    54      1.231616  6 H  s                 29      0.920427  2 C  py         
    57     -0.776968  7 H  s                 14      0.658994  1 C  py         
    30      0.633073  2 C  pz                33     -0.629775  3 H  s          
 
 Vector   20  Occ=0.000000D+00  E= 1.901567D-01
              MO Center= -3.5D-02,  1.8D-01,  4.9D-01, r^2= 6.0D+00
   Bfn.  Coefficient  Atom+Function         Bfn.  Coefficient  Atom+Function  
  ----- ------------  ---------------      ----- ------------  ---------------
    15      1.253384  1 C  pz                60      1.087182  8 H  s          
     6     -0.883133  1 C  s                 54     -0.886252  6 H  s          
    28     -0.800931  2 C  px                13      0.785015  1 C  px         
    42      0.749193  5 O  s                 14      0.697196  1 C  py         
    21     -0.490422  2 C  s                 56      0.469458  7 H  s          
 
 Vector   21  Occ=0.000000D+00  E= 2.205861D-01
              MO Center=  1.2D+00,  2.8D-01, -8.9D-02, r^2= 3.8D+00
   Bfn.  Coefficient  Atom+Function         Bfn.  Coefficient  Atom+Function  
  ----- ------------  ---------------      ----- ------------  ---------------
    29      2.139071  2 C  py                30     -0.829228  2 C  pz         
    33      0.828950  3 H  s                 36     -0.829033  4 H  s          
    28     -0.575075  2 C  px                32      0.488570  3 H  s          
    35     -0.488520  4 H  s                 14     -0.393104  1 C  py         
    26     -0.287144  2 C  py                11     -0.253113  1 C  py         
 
 Vector   22  Occ=0.000000D+00  E= 2.563136D-01
              MO Center=  5.8D-01,  3.3D-01,  4.5D-01, r^2= 5.8D+00
   Bfn.  Coefficient  Atom+Function         Bfn.  Coefficient  Atom+Function  
  ----- ------------  ---------------      ----- ------------  ---------------
    30      3.714009  2 C  pz                15     -3.223431  1 C  pz         
    54      2.107327  6 H  s                 57      1.773504  7 H  s          
    13      1.429092  1 C  px                42     -1.380374  5 O  s          
    29      1.316786  2 C  py                33     -1.266378  3 H  s          
    36     -1.266840  4 H  s                 14     -0.865452  1 C  py         
 
 Vector   23  Occ=0.000000D+00  E= 2.566857D-01
              MO Center= -3.1D-01,  6.5D-02,  3.8D-01, r^2= 4.9D+00
   Bfn.  Coefficient  Atom+Function         Bfn.  Coefficient  Atom+Function  
  ----- ------------  ---------------      ----- ------------  ---------------
    14      1.564467  1 C  py                29     -0.728379  2 C  py         
    11     -0.693546  1 C  py                15     -0.606247  1 C  pz         
    13     -0.421235  1 C  px                33      0.388771  3 H  s          
    36     -0.388324  4 H  s                 30      0.282022  2 C  pz         
    12      0.269004  1 C  pz                 8     -0.242716  1 C  py         
 
 Vector   24  Occ=0.000000D+00  E= 2.674884D-01
              MO Center= -5.5D-01, -1.1D-01,  9.7D-02, r^2= 5.3D+00
   Bfn.  Coefficient  Atom+Function         Bfn.  Coefficient  Atom+Function  
  ----- ------------  ---------------      ----- ------------  ---------------
    13      4.285292  1 C  px                21     -3.235459  2 C  s          
    54      2.779851  6 H  s                  6      2.285056  1 C  s          
    28      1.526553  2 C  px                49     -1.027973  5 O  px         
    15     -0.855788  1 C  pz                14      0.820886  1 C  py         
    57     -0.753399  7 H  s                 33     -0.567449  3 H  s          
 
 Vector   25  Occ=0.000000D+00  E= 3.177023D-01
              MO Center= -9.7D-01, -3.5D-01, -2.2D-01, r^2= 4.9D+00
   Bfn.  Coefficient  Atom+Function         Bfn.  Coefficient  Atom+Function  
  ----- ------------  ---------------      ----- ------------  ---------------
    57      1.571619  7 H  s                 59      1.377048  8 H  s          
    30      1.347826  2 C  pz                60     -1.244950  8 H  s          
    21      1.220952  2 C  s                  6     -1.110602  1 C  s          
    28     -1.047989  2 C  px                53      0.934895  6 H  s          
    13     -0.869192  1 C  px                54     -0.732045  6 H  s          
 
 Vector   26  Occ=0.000000D+00  E= 3.333119D-01
              MO Center= -3.0D-01, -2.1D-02,  1.5D-01, r^2= 3.9D+00
   Bfn.  Coefficient  Atom+Function         Bfn.  Coefficient  Atom+Function  
  ----- ------------  ---------------      ----- ------------  ---------------
     6      1.553602  1 C  s                 60     -0.949273  8 H  s          
    25      0.809396  2 C  px                13     -0.772774  1 C  px         
    53     -0.752821  6 H  s                 59      0.647777  8 H  s          
    20     -0.502603  2 C  s                 10      0.495855  1 C  px         
    15      0.476370  1 C  pz                28     -0.440069  2 C  px         
 
 Vector   27  Occ=0.000000D+00  E= 3.831982D-01
              MO Center= -2.1D-03, -6.3D-02, -1.6D-01, r^2= 3.8D+00
   Bfn.  Coefficient  Atom+Function         Bfn.  Coefficient  Atom+Function  
  ----- ------------  ---------------      ----- ------------  ---------------
    15      2.463277  1 C  pz                54     -2.244021  6 H  s          
    13     -1.798946  1 C  px                 6      1.307135  1 C  s          
    57      1.092238  7 H  s                 12     -0.979351  1 C  pz         
    51     -0.766309  5 O  pz                 5      0.515402  1 C  s          
    14      0.471394  1 C  py                11     -0.425685  1 C  py         
 
 Vector   28  Occ=0.000000D+00  E= 4.267686D-01
              MO Center=  1.1D+00,  6.8D-01,  9.7D-01, r^2= 3.7D+00
   Bfn.  Coefficient  Atom+Function         Bfn.  Coefficient  Atom+Function  
  ----- ------------  ---------------      ----- ------------  ---------------
    33      2.483910  3 H  s                 36     -2.483711  4 H  s          
    29      1.864857  2 C  py                32     -1.152954  3 H  s          
    35      1.152989  4 H  s                 26     -0.980113  2 C  py         
    30     -0.722935  2 C  pz                28     -0.501750  2 C  px         
    27      0.379901  2 C  pz                14     -0.330045  1 C  py         
 
 Vector   29  Occ=0.000000D+00  E= 4.446984D-01
              MO Center=  3.5D-01,  1.1D-01,  4.7D-02, r^2= 5.3D+00
   Bfn.  Coefficient  Atom+Function         Bfn.  Coefficient  Atom+Function  
  ----- ------------  ---------------      ----- ------------  ---------------
    57      2.789139  7 H  s                 54     -2.321206  6 H  s          
    13     -1.514590  1 C  px                28     -1.496279  2 C  px         
    56     -1.164049  7 H  s                 30      1.069185  2 C  pz         
    25      0.876896  2 C  px                10      0.785190  1 C  px         
    15      0.686404  1 C  pz                53      0.642540  6 H  s          
 
 Vector   30  Occ=0.000000D+00  E= 4.702825D-01
              MO Center=  2.7D-01,  2.6D-01,  4.9D-01, r^2= 5.9D+00
   Bfn.  Coefficient  Atom+Function         Bfn.  Coefficient  Atom+Function  
  ----- ------------  ---------------      ----- ------------  ---------------
    54      1.959000  6 H  s                 13      1.862116  1 C  px         
    33     -1.786075  3 H  s                 36     -1.785825  4 H  s          
    21      1.721938  2 C  s                 20     -1.489285  2 C  s          
    51      1.195050  5 O  pz                 6     -1.165541  1 C  s          
    30      1.148824  2 C  pz                60      0.876351  8 H  s          
 
 Vector   31  Occ=0.000000D+00  E= 4.829318D-01
              MO Center= -5.8D-01, -4.0D-01, -6.3D-01, r^2= 3.8D+00
   Bfn.  Coefficient  Atom+Function         Bfn.  Coefficient  Atom+Function  
  ----- ------------  ---------------      ----- ------------  ---------------
    50      1.472069  5 O  py                33     -1.029320  3 H  s          
    36      1.030063  4 H  s                 14     -0.755315  1 C  py         
    29     -0.684199  2 C  py                47     -0.625790  5 O  py         
    51     -0.571361  5 O  pz                49     -0.396087  5 O  px         
    15      0.293223  1 C  pz                26      0.271777  2 C  py         
 
 Vector   32  Occ=0.000000D+00  E= 4.881533D-01
              MO Center=  4.2D-01,  2.1D-01,  2.6D-01, r^2= 4.4D+00
   Bfn.  Coefficient  Atom+Function         Bfn.  Coefficient  Atom+Function  
  ----- ------------  ---------------      ----- ------------  ---------------
     6      2.418279  1 C  s                 20     -1.861335  2 C  s          
    21      1.608801  2 C  s                 54     -1.538489  6 H  s          
    57     -1.337321  7 H  s                 13     -1.021884  1 C  px         
    56      1.004232  7 H  s                  5     -0.775584  1 C  s          
    10      0.689025  1 C  px                51     -0.649749  5 O  pz         
 
 Vector   33  Occ=0.000000D+00  E= 5.053734D-01
              MO Center=  6.3D-02,  1.6D-01,  3.7D-01, r^2= 4.1D+00
   Bfn.  Coefficient  Atom+Function         Bfn.  Coefficient  Atom+Function  
  ----- ------------  ---------------      ----- ------------  ---------------
     6      5.863483  1 C  s                  5     -2.701437  1 C  s          
    28      1.804601  2 C  px                13      1.220184  1 C  px         
    33     -1.082579  3 H  s                 36     -1.082684  4 H  s          
    29      0.756332  2 C  py                30      0.699107  2 C  pz         
[...]
    27     -1.024906  2 C  pz                20     -0.995453  2 C  s          
     7     -0.955621  1 C  px                30      0.852381  2 C  pz         
     5     -0.709456  1 C  s                 57      0.708598  7 H  s          
    11      0.688063  1 C  py                32      0.596347  3 H  s          
 
 Vector   43  Occ=0.000000D+00  E= 1.632121D+00
              MO Center=  3.8D-01,  2.7D-01,  4.3D-01, r^2= 2.4D+00
   Bfn.  Coefficient  Atom+Function         Bfn.  Coefficient  Atom+Function  
  ----- ------------  ---------------      ----- ------------  ---------------
    27     -2.013937  2 C  pz                12      1.964918  1 C  pz         
    30      1.675882  2 C  pz                54      1.341553  6 H  s          
    15     -1.262218  1 C  pz                57      1.206382  7 H  s          
    10     -1.144489  1 C  px                53     -1.122259  6 H  s          
    56     -1.075235  7 H  s                 13      0.952876  1 C  px         
 
 Vector   44  Occ=0.000000D+00  E= 2.028817D+00
              MO Center= -1.6D+00, -8.0D-01, -9.4D-01, r^2= 1.1D+00
   Bfn.  Coefficient  Atom+Function         Bfn.  Coefficient  Atom+Function  
  ----- ------------  ---------------      ----- ------------  ---------------
    59      2.298399  8 H  s                 58     -1.310863  8 H  s          
    60     -1.121578  8 H  s                 46      0.762763  5 O  px         
    42     -0.544431  5 O  s                 43     -0.544224  5 O  px         
    15     -0.356235  1 C  pz                21     -0.242401  2 C  s          
     6      0.224839  1 C  s                 47      0.215566  5 O  py         
 
 Vector   45  Occ=0.000000D+00  E= 2.101395D+00
              MO Center=  8.7D-01,  4.5D-01,  5.6D-01, r^2= 2.9D+00
   Bfn.  Coefficient  Atom+Function         Bfn.  Coefficient  Atom+Function  
  ----- ------------  ---------------      ----- ------------  ---------------
    20      2.497751  2 C  s                  5     -2.044230  1 C  s          
    19     -1.948279  2 C  s                  4      1.439395  1 C  s          
    56     -1.335503  7 H  s                 32     -1.234324  3 H  s          
    35     -1.234201  4 H  s                 54     -0.988014  6 H  s          
    53      0.870018  6 H  s                 57      0.730445  7 H  s          
 
 Vector   46  Occ=0.000000D+00  E= 2.205818D+00
              MO Center= -6.3D-01,  1.9D-01,  9.2D-01, r^2= 2.3D+00
   Bfn.  Coefficient  Atom+Function         Bfn.  Coefficient  Atom+Function  
  ----- ------------  ---------------      ----- ------------  ---------------
    53      1.908305  6 H  s                  5     -1.508240  1 C  s          
    52     -1.288171  6 H  s                  4      1.079209  1 C  s          
    20     -0.902937  2 C  s                  6      0.851439  1 C  s          
    19      0.832233  2 C  s                 54     -0.610324  6 H  s          
    32      0.582520  3 H  s                 35      0.582710  4 H  s          
 
 Vector   47  Occ=0.000000D+00  E= 2.302454D+00
              MO Center=  1.3D+00,  7.7D-01,  1.1D+00, r^2= 2.0D+00
   Bfn.  Coefficient  Atom+Function         Bfn.  Coefficient  Atom+Function  
  ----- ------------  ---------------      ----- ------------  ---------------
    32      1.609134  3 H  s                 35     -1.609547  4 H  s          
    31     -1.126063  3 H  s                 34      1.126363  4 H  s          
    33     -0.962937  3 H  s                 36      0.963110  4 H  s          
    14     -0.189999  1 C  py                11      0.171977  1 C  py         
    26      0.132781  2 C  py                 8     -0.107859  1 C  py         
 
 Vector   48  Occ=0.000000D+00  E= 2.304754D+00
              MO Center=  1.5D+00,  4.3D-01,  5.7D-02, r^2= 2.0D+00
   Bfn.  Coefficient  Atom+Function         Bfn.  Coefficient  Atom+Function  
  ----- ------------  ---------------      ----- ------------  ---------------
    56      1.778527  7 H  s                 55     -1.303332  7 H  s          
    57     -0.823296  7 H  s                 32     -0.814832  3 H  s          
    35     -0.814069  4 H  s                 31      0.621882  3 H  s          
    34      0.621364  4 H  s                 15     -0.480223  1 C  pz         
    12      0.419078  1 C  pz                33      0.396602  3 H  s          
 
 Vector   49  Occ=0.000000D+00  E= 2.447511D+00
              MO Center= -1.8D-01,  1.4D-01,  4.8D-01, r^2= 1.8D+00
   Bfn.  Coefficient  Atom+Function         Bfn.  Coefficient  Atom+Function  
  ----- ------------  ---------------      ----- ------------  ---------------
     5      4.347508  1 C  s                  4     -3.395239  1 C  s          
     6     -3.130270  1 C  s                 20      1.586197  2 C  s          
    19     -1.396148  2 C  s                 21     -1.121418  2 C  s          
    53      0.808576  6 H  s                 28     -0.727478  2 C  px         
    52     -0.707347  6 H  s                  3      0.671677  1 C  s          
 
 Vector   50  Occ=0.000000D+00  E= 2.499164D+00
              MO Center= -6.9D-01, -5.0D-01, -8.1D-01, r^2= 1.0D+00
   Bfn.  Coefficient  Atom+Function         Bfn.  Coefficient  Atom+Function  
  ----- ------------  ---------------      ----- ------------  ---------------
    47      1.557979  5 O  py                44     -1.091922  5 O  py         
    50     -0.874704  5 O  py                48     -0.604197  5 O  pz         
    45      0.423442  5 O  pz                46     -0.419104  5 O  px         
    14      0.407228  1 C  py                51      0.339223  5 O  pz         
    43      0.293727  5 O  px                11     -0.257087  1 C  py         
 
 Vector   51  Occ=0.000000D+00  E= 2.621763D+00
              MO Center= -3.4D-01, -2.7D-01, -4.7D-01, r^2= 2.3D+00
   Bfn.  Coefficient  Atom+Function         Bfn.  Coefficient  Atom+Function  
  ----- ------------  ---------------      ----- ------------  ---------------
    21     -2.316005  2 C  s                 20      2.119721  2 C  s          
     6      1.700569  1 C  s                 19     -1.609888  2 C  s          
    48      1.439136  5 O  pz                45     -0.936357  5 O  pz         
    51     -0.846287  5 O  pz                15      0.717096  1 C  pz         
    13     -0.575306  1 C  px                49      0.568876  5 O  px         
 
 Vector   52  Occ=0.000000D+00  E= 2.776448D+00
              MO Center=  5.4D-01,  2.2D-01,  1.9D-01, r^2= 2.7D+00
   Bfn.  Coefficient  Atom+Function         Bfn.  Coefficient  Atom+Function  
  ----- ------------  ---------------      ----- ------------  ---------------
    21      6.405017  2 C  s                 20     -4.276011  2 C  s          
     6     -3.446795  1 C  s                 19      2.891366  2 C  s          
     5      2.278243  1 C  s                 13     -2.057208  1 C  px         
     4     -1.607131  1 C  s                 28     -1.176146  2 C  px         
    32     -0.985826  3 H  s                 35     -0.985818  4 H  s          
 
 Vector   53  Occ=0.000000D+00  E= 2.952887D+00
              MO Center= -6.7D-01, -4.8D-01, -7.8D-01, r^2= 1.5D+00
   Bfn.  Coefficient  Atom+Function         Bfn.  Coefficient  Atom+Function  
  ----- ------------  ---------------      ----- ------------  ---------------
    46     -1.742535  5 O  px                49      1.691019  5 O  px         
    21      1.638115  2 C  s                 20     -1.381696  2 C  s          
    13     -1.334520  1 C  px                54     -1.157044  6 H  s          
    59      1.115208  8 H  s                 43      1.012032  5 O  px         
    15      0.993878  1 C  pz                19      0.933700  2 C  s          
 
 Vector   54  Occ=0.000000D+00  E= 4.573625D+00
              MO Center= -6.6D-01, -4.8D-01, -7.8D-01, r^2= 8.5D-01
   Bfn.  Coefficient  Atom+Function         Bfn.  Coefficient  Atom+Function  
  ----- ------------  ---------------      ----- ------------  ---------------
    41      4.855917  5 O  s                 40     -3.853011  5 O  s          
    42     -3.552012  5 O  s                  6      1.572898  1 C  s          
    15     -1.025884  1 C  pz                39      0.814651  5 O  s          
    30      0.624426  2 C  pz                21     -0.566465  2 C  s          
    51     -0.541257  5 O  pz                59      0.524126  8 H  s          
 
 Vector   55  Occ=0.000000D+00  E= 1.154581D+01
              MO Center=  3.9D-02,  1.5D-01,  3.6D-01, r^2= 7.7D-01
   Bfn.  Coefficient  Atom+Function         Bfn.  Coefficient  Atom+Function  
  ----- ------------  ---------------      ----- ------------  ---------------
     3      2.776870  1 C  s                  4     -2.774229  1 C  s          
     5      2.250251  1 C  s                 19     -1.721394  2 C  s          
    18      1.706124  2 C  s                  2     -1.462113  1 C  s          
    20      1.387581  2 C  s                  6     -1.041612  1 C  s          
    17     -0.895999  2 C  s                 21     -0.804321  2 C  s          
 
 Vector   56  Occ=0.000000D+00  E= 1.173840D+01
              MO Center=  6.6D-01,  3.5D-01,  4.3D-01, r^2= 7.5D-01
   Bfn.  Coefficient  Atom+Function         Bfn.  Coefficient  Atom+Function  
  ----- ------------  ---------------      ----- ------------  ---------------
    19     -2.946087  2 C  s                 18      2.808543  2 C  s          
    20      2.698723  2 C  s                 21     -2.333444  2 C  s          
     4      1.782118  1 C  s                  3     -1.707435  1 C  s          
     5     -1.669029  1 C  s                  6      1.479436  1 C  s          
    17     -1.467175  2 C  s                  2      0.894268  1 C  s          
 
 Vector   57  Occ=0.000000D+00  E= 2.186963D+01
              MO Center= -6.9D-01, -5.0D-01, -8.2D-01, r^2= 2.0D-01
   Bfn.  Coefficient  Atom+Function         Bfn.  Coefficient  Atom+Function  
  ----- ------------  ---------------      ----- ------------  ---------------
    39      3.313349  5 O  s                 40     -3.181908  5 O  s          
    41      2.497898  5 O  s                 38     -1.740401  5 O  s          
    42     -1.486970  5 O  s                  6      0.599965  1 C  s          
    15     -0.422995  1 C  pz                30      0.248664  2 C  pz         
    51     -0.224095  5 O  pz                21     -0.184226  2 C  s          
 
 Vector   58  Occ=0.000000D+00  E= 6.248696D+01
              MO Center=  1.6D-02,  1.4D-01,  3.5D-01, r^2= 4.8D-01
   Bfn.  Coefficient  Atom+Function         Bfn.  Coefficient  Atom+Function  
  ----- ------------  ---------------      ----- ------------  ---------------
     2      2.531155  1 C  s                  3     -1.916844  1 C  s          
     1     -1.500553  1 C  s                 17      1.490103  2 C  s          
     4      1.245118  1 C  s                 18     -1.130094  2 C  s          
     5     -0.960804  1 C  s                 16     -0.883593  2 C  s          
    19      0.739118  2 C  s                 20     -0.562976  2 C  s          
 
 Vector   59  Occ=0.000000D+00  E= 6.268732D+01
              MO Center=  6.8D-01,  3.5D-01,  4.3D-01, r^2= 4.7D-01
   Bfn.  Coefficient  Atom+Function         Bfn.  Coefficient  Atom+Function  
  ----- ------------  ---------------      ----- ------------  ---------------
    17      2.545188  2 C  s                 18     -1.946365  2 C  s          
     2     -1.499055  1 C  s                 16     -1.502248  2 C  s          
    19      1.327067  2 C  s                 20     -1.151084  2 C  s          
     3      1.144652  1 C  s                 21      0.990204  2 C  s          
     1      0.884601  1 C  s                  4     -0.778423  1 C  s          
 
 Vector   60  Occ=0.000000D+00  E= 1.178095D+02
              MO Center= -7.0D-01, -5.1D-01, -8.2D-01, r^2= 4.3D-02
   Bfn.  Coefficient  Atom+Function         Bfn.  Coefficient  Atom+Function  
  ----- ------------  ---------------      ----- ------------  ---------------
    38      2.967046  5 O  s                 39     -2.267373  5 O  s          
    37     -1.755862  5 O  s                 40      1.419021  5 O  s          
    41     -1.051978  5 O  s                 42      0.629183  5 O  s          
     6     -0.258770  1 C  s                 15      0.181943  1 C  pz         
    30     -0.106960  2 C  pz                51      0.095254  5 O  pz         
 

   alpha - beta orbital overlaps 
   ----------------------------- 


   alpha      1      2      3      4      5      6      7      8      9     10
    beta      1      2      3      4      5      6      7      8      9     10
 overlap   1.000  1.000  1.000  1.000  0.998  0.997  0.997  0.999  0.978  0.999


   alpha     11     12     13     14     15     16     17     18     19     20
    beta     11     12     13     14     15     16     17     18     19     20
 overlap   0.980  1.000  0.994  1.000  0.999  0.991  1.000  0.991  0.999  0.998


   alpha     21     22     23     24     25     26     27     28     29     30
    beta     21     23     22     24     25     26     27     28     29     30
 overlap   0.920  0.918  0.969  0.969  0.831  0.824  0.993  0.998  0.991  0.991


   alpha     31     32     33     34     35     36     37     38     39     40
    beta     31     32     33     34     35     36     37     38     39     40
 overlap   0.998  0.954  0.951  0.998  1.000  0.999  1.000  0.999  0.984  0.999


   alpha     41     42     43     44     45     46     47     48     49     50
    beta     41     42     43     44     45     46     47     48     49     50
 overlap   0.984  0.999  0.999  1.000  0.999  0.999  1.000  1.000  0.998  1.000


   alpha     51     52     53     54     55     56     57     58     59     60
    beta     51     52     53     54     55     56     57     58     59     60
 overlap   1.000  0.999  1.000  1.000  0.999  0.999  1.000  1.000  1.000  1.000


     --------------------------
     Expectation value of S2:  
     --------------------------
      <S2> =      0.7527 (Exact =     0.7500)
 

 center of mass
 --------------
 x =  -0.05892155 y =  -0.04668358 z =  -0.07953185

 moments of inertia (a.u.)
 ------------------
         104.140554054349         -51.539263301226         -58.189389065510
         -51.539263301226         182.345944273369         -40.382517863403
         -58.189389065510         -40.382517863403         148.090733829195
 
     Multipole analysis of the density
     ---------------------------------
 
     L   x y z        total         alpha         beta         nuclear
     -   - - -        -----         -----         ----         -------
     0   0 0 0     -0.000000    -13.000000    -12.000000     25.000000
 
     1   1 0 0     -0.584451     -0.028105     -0.556345     -0.000000
     1   0 1 0     -0.072664     -0.041577     -0.031087      0.000000
     1   0 0 1      0.218089     -0.087687      0.305776     -0.000000
 
     2   2 0 0    -11.184482    -43.602866    -41.657341     74.075725
     2   1 1 0      1.544659    -15.071721    -14.874614     31.490994
     2   1 0 1      0.869467    -16.725375    -15.965791     33.560633
     2   0 2 0    -15.094249    -20.261322    -17.849453     23.016526
     2   0 1 1      0.421620    -11.677184    -11.542964     23.641767
     2   0 0 2    -15.189122    -30.191718    -28.065388     43.067984
 

 Task  times  cpu:        3.3s     wall:        3.6s
 
 
                                NWChem Input Module
                                -------------------
 
 
 Summary of allocated global arrays
-----------------------------------
  No active global arrays



                         GA Statistics for process    0
                         ------------------------------

       create   destroy   get      put      acc     scatter   gather  read&inc
calls:  638      638     1.26e+04 1680     9190        0        0      878     
number of processes/call 1.30e+01 2.08e+01 8.92e+00 0.00e+00 0.00e+00
bytes total:             4.47e+07 9.64e+06 2.00e+07 0.00e+00 0.00e+00 7.02e+03
bytes remote:            3.05e+07 4.31e+06 1.53e+07 0.00e+00 0.00e+00 0.00e+00
Max memory consumed for GA by this process: 453600 bytes
 
 
 
                                     CITATION
                                     --------
                Please cite the following reference when publishing
                           results obtained with NWChem:
 
          E. Apr, E. J. Bylaska, W. A. de Jong, N. Govind, K. Kowalski,
       T. P. Straatsma, M. Valiev, H. J. J. van Dam, Y. Alexeev, J. Anchell,
       V. Anisimov, F. W. Aquino, R. Atta-Fynn, J. Autschbach, N. P. Bauman,
     J. C. Becca, D. E. Bernholdt, K. Bhaskaran-Nair, S. Bogatko, P. Borowski,
        J. Boschen, J. Brabec, A. Bruner, E. Caut, Y. Chen, G. N. Chuev,
      C. J. Cramer, J. Daily, M. J. O. Deegan, T. H. Dunning Jr., M. Dupuis,
   K. G. Dyall, G. I. Fann, S. A. Fischer, A. Fonari, H. Frchtl, L. Gagliardi,
      J. Garza, N. Gawande, S. Ghosh, K. Glaesemann, A. W. Gtz, J. Hammond,
       V. Helms, E. D. Hermes, K. Hirao, S. Hirata, M. Jacquelin, L. Jensen,
   B. G. Johnson, H. Jnsson, R. A. Kendall, M. Klemm, R. Kobayashi, V. Konkov,
      S. Krishnamoorthy, M. Krishnan, Z. Lin, R. D. Lins, R. J. Littlefield,
      A. J. Logsdail, K. Lopata, W. Ma, A. V. Marenich, J. Martin del Campo,
   D. Mejia-Rodriguez, J. E. Moore, J. M. Mullin, T. Nakajima, D. R. Nascimento,
    J. A. Nichols, P. J. Nichols, J. Nieplocha, A. Otero-de-la-Roza, B. Palmer,
    A. Panyala, T. Pirojsirikul, B. Peng, R. Peverati, J. Pittner, L. Pollack,
   R. M. Richard, P. Sadayappan, G. C. Schatz, W. A. Shelton, D. W. Silverstein,
   D. M. A. Smith, T. A. Soares, D. Song, M. Swart, H. L. Taylor, G. S. Thomas,
            V. Tipparaju, D. G. Truhlar, K. Tsemekhman, T. Van Voorhis,
     . Vzquez-Mayagoitia, P. Verma, O. Villa, A. Vishnu, K. D. Vogiatzis,
        D. Wang, J. H. Weare, M. J. Williamson, T. L. Windus, K. Woliski,
        A. T. Wong, Q. Wu, C. Yang, Q. Yu, M. Zacharias, Z. Zhang, Y. Zhao,
                                and R. J. Harrison
                        "NWChem: Past, present, and future
                         J. Chem. Phys. 152, 184102 (2020)
                               doi:10.1063/5.0004997
 
                                      AUTHORS
                                      -------
     E. Apra, E. J. Bylaska, N. Govind, K. Kowalski, M. Valiev, W. A. de Jong,
      T. P. Straatsma, H. J. J. van Dam, D. Wang, T. L. Windus, N. P. Bauman,
       A. Panyala, J. Hammond, J. Autschbach, K. Bhaskaran-Nair, J. Brabec,
    K. Lopata, S. A. Fischer, S. Krishnamoorthy, M. Jacquelin, W. Ma, M. Klemm,
       O. Villa, Y. Chen, V. Anisimov, F. Aquino, S. Hirata, M. T. Hackler,
           Eric Hermes, L. Jensen, J. E. Moore, J. C. Becca, V. Konjkov,
            D. Mejia-Rodriguez, T. Risthaus, M. Malagoli, A. Marenich,
   A. Otero-de-la-Roza, J. Mullin, P. Nichols, R. Peverati, J. Pittner, Y. Zhao,
        P.-D. Fan, A. Fonari, M. J. Williamson, R. J. Harrison, J. R. Rehr,
      M. Dupuis, D. Silverstein, D. M. A. Smith, J. Nieplocha, V. Tipparaju,
      M. Krishnan, B. E. Van Kuiken, A. Vazquez-Mayagoitia, M. Swart, Q. Wu,
   T. Van Voorhis, A. A. Auer, M. Nooijen, L. D. Crosby, E. Brown, G. Cisneros,
     G. I. Fann, H. Fruchtl, J. Garza, K. Hirao, R. A. Kendall, J. A. Nichols,
       K. Tsemekhman, K. Wolinski, J. Anchell, D. E. Bernholdt, P. Borowski,
       T. Clark, D. Clerc, H. Dachsel, M. J. O. Deegan, K. Dyall, D. Elwood,
      E. Glendening, M. Gutowski, A. C. Hess, J. Jaffe, B. G. Johnson, J. Ju,
        R. Kobayashi, R. Kutteh, Z. Lin, R. Littlefield, X. Long, B. Meng,
      T. Nakajima, S. Niu, L. Pollack, M. Rosing, K. Glaesemann, G. Sandrone,
      M. Stave, H. Taylor, G. Thomas, J. H. van Lenthe, A. T. Wong, Z. Zhang.

 Total times  cpu:        3.3s     wall:        3.7s
