 
             Northwest Computational Chemistry Package (NWChem) 7.0.0
             --------------------------------------------------------
 
 
                    Environmental Molecular Sciences Laboratory
                       Pacific Northwest National Laboratory
                                Richland, WA 99352
 
                              Copyright (c) 1994-2020
                       Pacific Northwest National Laboratory
                            Battelle Memorial Institute
 
             NWChem is an open-source computational chemistry package
                        distributed under the terms of the
                      Educational Community License (ECL) 2.0
             A copy of the license is included with this distribution
                              in the LICENSE.TXT file
 
                                  ACKNOWLEDGMENT
                                  --------------

            This software and its documentation were developed at the
            EMSL at Pacific Northwest National Laboratory, a multiprogram
            national laboratory, operated for the U.S. Department of Energy
            by Battelle under Contract Number DE-AC05-76RL01830. Support
            for this work was provided by the Department of Energy Office
            of Biological and Environmental Research, Office of Basic
            Energy Sciences, and the Office of Advanced Scientific Computing.


                                NWChem Input Module
                                -------------------
 
 
 Summary of "ao basis" -> "" (spherical)
 ------------------------------------------------------------------------------
       Tag                 Description            Shells   Functions and Types
 ---------------- ------------------------------  ------  ---------------------
 *                        ahlrichs_vtz                on all atoms 



 Scaling coordinates for geometry "geometry" by  1.889725989
 (inverse scale =  0.529177249)

 
 
                             Geometry "geometry" -> ""
                             -------------------------
 
 Output coordinates in angstroms (scale by  1.889725989 to convert to a.u.)
 
  No.       Tag          Charge          X              Y              Z
 ---- ---------------- ---------- -------------- -------------- --------------
    1 C                    6.0000     0.71660205    -0.58009068    -0.59776624
    2 C                    6.0000     1.86489511     0.33383747    -0.63267930
    3 H                    1.0000     2.64666937    -0.04725526     0.05598677
    4 H                    1.0000     1.59239555     1.33370245    -0.27712357
    5 O                    8.0000     0.66562999    -1.69865649    -1.28349537
    6 H                    1.0000     2.31750676     0.40021620    -1.63324740
    7 C                    6.0000    -0.50592963    -0.36905015     0.23147765
    8 Cl                  17.0000    -1.37446545     0.95610579    -0.76515152
    9 Cl                  17.0000    -0.07254942     0.14545552     1.92705226
   10 H                    1.0000    -1.15845905    -1.24181695     0.26601819
   11 H                    1.0000     1.42269521    -1.89031672    -1.90217632
 
      Atomic Mass 
      ----------- 
 
      C                 12.000000
      H                  1.007825
      O                 15.994910
      Cl                34.968850
 

 Effective nuclear repulsion energy (a.u.)     359.6215250012

            Nuclear Dipole moment (a.u.) 
            ----------------------------
        X                 Y               Z
 ---------------- ---------------- ----------------
     0.0000000000     0.0000000000    -0.0000000000
 
 
            XYZ format geometry
            -------------------
    11
 geometry
 C                     0.71660205    -0.58009068    -0.59776624
 C                     1.86489511     0.33383747    -0.63267930
 H                     2.64666937    -0.04725526     0.05598677
 H                     1.59239555     1.33370245    -0.27712357
 O                     0.66562999    -1.69865649    -1.28349537
 H                     2.31750676     0.40021620    -1.63324740
 C                    -0.50592963    -0.36905015     0.23147765
 Cl                   -1.37446545     0.95610579    -0.76515152
 Cl                   -0.07254942     0.14545552     1.92705226
 H                    -1.15845905    -1.24181695     0.26601819
 H                     1.42269521    -1.89031672    -1.90217632
 
 ==============================================================================
                                internuclear distances
 ------------------------------------------------------------------------------
       center one      |      center two      | atomic units |  angstroms
 ------------------------------------------------------------------------------
    2 C                |   1 C                |     2.77414  |     1.46801
    3 H                |   2 C                |     2.09637  |     1.10935
    4 H                |   2 C                |     2.07044  |     1.09563
    5 O                |   1 C                |     2.48124  |     1.31302
    6 H                |   2 C                |     2.07904  |     1.10018
    7 C                |   1 C                |     2.81992  |     1.49224
    8 Cl               |   7 C                |     3.53720  |     1.87181
    9 Cl               |   7 C                |     3.44714  |     1.82415
   10 H                |   7 C                |     2.06033  |     1.09028
   11 H                |   5 O                |     1.88277  |     0.99632
 ------------------------------------------------------------------------------
                         number of included internuclear distances:         10
 ==============================================================================



 ==============================================================================
                                 internuclear angles
 ------------------------------------------------------------------------------
        center 1       |       center 2       |       center 3       |  degrees
 ------------------------------------------------------------------------------
    2 C                |   1 C                |   5 O                |   123.25
    2 C                |   1 C                |   7 C                |   124.47
    5 O                |   1 C                |   7 C                |   112.27
    1 C                |   2 C                |   3 H                |   108.82
    1 C                |   2 C                |   4 H                |   111.46
    1 C                |   2 C                |   6 H                |   112.40
    3 H                |   2 C                |   4 H                |   106.70
    3 H                |   2 C                |   6 H                |   107.18
    4 H                |   2 C                |   6 H                |   110.02
    1 C                |   5 O                |  11 H                |   117.30
    1 C                |   7 C                |   8 Cl               |   100.63
    1 C                |   7 C                |   9 Cl               |   111.21
    1 C                |   7 C                |  10 H                |   113.25
    8 Cl               |   7 C                |   9 Cl               |   113.92
    8 Cl               |   7 C                |  10 H                |   107.81
    9 Cl               |   7 C                |  10 H                |   109.79
 ------------------------------------------------------------------------------
                            number of included internuclear angles:         16
 ==============================================================================



                              Aldehyde and Ketone set
                              -----------------------
 
                                 NWChem DFT Module
                                 -----------------
 
 
                              Aldehyde and Ketone set
 
 
                      Basis "ao basis" -> "ao basis" (spherical)
                      -----
  C (Carbon)
  ----------
            Exponent  Coefficients 
       -------------- ---------------------------------------------------------
  1 S  8.50603840E+03  0.000534
  1 S  1.27573290E+03  0.004125
  1 S  2.90311870E+02  0.021171
  1 S  8.20562000E+01  0.082418
  1 S  2.64796410E+01  0.240129
 
  2 S  9.24145850E+00  1.000000
 
  3 S  3.36435300E+00  1.000000
 
  4 S  8.71741640E-01  1.000000
 
  5 S  3.63523520E-01  1.000000
 
  6 S  1.28731350E-01  1.000000
 
  7 P  3.47094960E+01  0.005330
  7 P  7.95908830E+00  0.035866
  7 P  2.37869720E+00  0.142003
  7 P  8.15400650E-01  0.342031
 
  8 P  2.89537850E-01  1.000000
 
  9 P  1.00847540E-01  1.000000
 
  H (Hydrogen)
  ------------
            Exponent  Coefficients 
       -------------- ---------------------------------------------------------
  1 S  3.40613410E+01  0.006025
  1 S  5.12357460E+00  0.045021
  1 S  1.16466260E+00  0.201897
 
  2 S  3.27230410E-01  1.000000
 
  3 S  1.03072410E-01  1.000000
 
  O (Oxygen)
  ----------
            Exponent  Coefficients 
       -------------- ---------------------------------------------------------
  1 S  1.59026475E+04  0.000515
  1 S  2.38495378E+03  0.003982
  1 S  5.42719572E+02  0.020477
  1 S  1.53404079E+02  0.080262
  1 S  4.95457161E+01  0.237668
 
  2 S  1.73396499E+01  1.000000
 
  3 S  6.33033553E+00  1.000000
 
  4 S  1.69958822E+00  1.000000
 
  5 S  6.89544913E-01  1.000000
 
  6 S  2.39360282E-01  1.000000
 
  7 P  6.32705240E+01  0.006071
  7 P  1.46233123E+01  0.041948
  7 P  4.44895180E+00  0.161569
  7 P  1.52815132E+00  0.356828
 
  8 P  5.29973159E-01  1.000000
 
  9 P  1.75094460E-01  1.000000
 
  Cl (Chlorine)
  -------------
            Exponent  Coefficients 
       -------------- ---------------------------------------------------------
  1 S  1.17805790E+05  0.000242
  1 S  1.76602650E+04  0.001874
  1 S  4.01859730E+03  0.009736
  1 S  1.13622310E+03  0.039495
  1 S  3.68120620E+02  0.127972
 
  2 S  1.30861540E+02  1.000000
 
  3 S  5.04790110E+01  0.428741
  3 S  2.09168050E+01  0.196685
 
  4 S  6.35313880E+00  1.000000
 
  5 S  2.49480140E+00  1.000000
 
  6 S  5.43359480E-01  1.000000
 
  7 S  1.94343660E-01  1.000000
 
  8 P  6.81068790E+02  0.002366
  8 P  1.61113590E+02  0.018941
  8 P  5.13866370E+01  0.087845
  8 P  1.89585120E+01  0.257074
  8 P  3.00351580E+00  0.371524
 
  9 P  7.45652930E+00  1.000000
 
 10 P  1.06093610E+00  1.000000
 
 11 P  3.94520230E-01  1.000000
 
 12 P  1.33232790E-01  1.000000
 


 Summary of "ao basis" -> "ao basis" (spherical)
 ------------------------------------------------------------------------------
       Tag                 Description            Shells   Functions and Types
 ---------------- ------------------------------  ------  ---------------------
 C                        ahlrichs vtz               9       15   6s3p
 H                        ahlrichs vtz               3        3   3s
 O                        ahlrichs vtz               9       15   6s3p
 Cl                       ahlrichs vtz              12       22   7s5p




 Summary of "ao basis" -> "ao basis" (spherical)
 ------------------------------------------------------------------------------
       Tag                 Description            Shells   Functions and Types
 ---------------- ------------------------------  ------  ---------------------
 C                        ahlrichs vtz               9       15   6s3p
 H                        ahlrichs vtz               3        3   3s
 O                        ahlrichs vtz               9       15   6s3p
 Cl                       ahlrichs vtz              12       22   7s5p


  Caching 1-el integrals 
 
            General Information
            -------------------
          SCF calculation type: DFT
          Wavefunction type:  spin polarized.
          No. of atoms     :    11
          No. of electrons :    65
           Alpha electrons :    33
            Beta electrons :    32
          Charge           :     0
          Spin multiplicity:     2
          Use of symmetry is: off; symmetry adaption is: off
          Maximum number of iterations: ***
          This is a Direct SCF calculation.
          AO basis - number of functions:   119
                     number of shells:    75
          Convergence on energy requested:  1.00D-08
          Convergence on density requested:  1.00D-07
          Convergence on gradient requested:  1.00D-06
 
              XC Information
              --------------
                        PBE96 Method XC Functional
          PerdewBurkeErnzerhof Exchange Functional  1.000          
            Perdew 1991 LDA Correlation Functional  1.000 local    
           PerdewBurkeErnz. Correlation Functional  1.000 non-local
 
             Grid Information
             ----------------
          Grid used for XC integration:  fine      
          Radial quadrature: Mura-Knowles        
          Angular quadrature: Lebedev. 
          Tag              B.-S. Rad. Rad. Pts. Rad. Cut. Ang. Pts.
          ---              ---------- --------- --------- ---------
          C                   0.70       70          11.0       590
          H                   0.35       60          12.0       590
          O                   0.60       70          11.0       590
          Cl                  1.00      123          12.0       770
          Grid pruning is: on 
          Number of quadrature shells:   826
          Spatial weights used:  Erf1
 
          Convergence Information
          -----------------------
          Convergence aids based upon iterative change in 
          total energy or number of iterations. 
          Levelshifting, if invoked, occurs when the 
          HOMO/LUMO gap drops below (HL_TOL):  1.00D-02
          DIIS, if invoked, will attempt to extrapolate 
          using up to (NFOCK): 10 stored Fock matrices.

                    Damping( 0%)  Levelshifting(0.5)       DIIS
                  --------------- ------------------- ---------------
          dE  on:    start            ASAP                start   
          dE off:    2 iters        *** iters           *** iters 

 
      Screening Tolerance Information
      -------------------------------
          Density screening/tol_rho:  1.00D-12
          AO Gaussian exp screening on grid/accAOfunc:  18
          CD Gaussian exp screening on grid/accCDfunc:  20
          XC Gaussian exp screening on grid/accXCfunc:  20
          Schwarz screening/accCoul:  1.00D-12

      Dispersion Parameters
      ---------------------

           DFT-D3BJ Model   
          s6 scale factor  :        1.000000000000
          s8 scale factor  :        0.787500000000
          a1 parameter     :        0.428900000000
          a2 parameter     :        4.440700000000
              vdW contrib  :       -0.010709938254


 Forcing the number of linearly dependent vectors to be  0
 
      Superposition of Atomic Density Guess
      -------------------------------------
 
 Sum of atomic energies:       -1109.25882515
   Time after variat. SCF:      0.2
   Time prior to 1st pass:      0.2

 Grid_pts file          = ./06_Cl2CHCOHCH3.gridpts.00
 Record size in doubles =  12289        No. of grid_pts per rec  =   3070
 Max. records in memory =     17        Max. recs in file   =  67550051


           Memory utilization after 1st SCF pass: 
           Heap Space remaining (MW):        0.00                 468
          Stack Space remaining (MW):      288.36           288356940

   convergence    iter        energy       DeltaE   RMS-Dens  Diis-err    time
 ---------------- ----- ----------------- --------- --------- ---------  ------
 d= 0,ls=0.0,diis     1  -1113.1874533771 -1.47D+03  1.25D-02  1.48D+01     0.5
                                                     1.14D-02  1.39D+01
 d= 0,ls=0.0,diis     2  -1112.1857175230  1.00D+00  1.26D-02  2.56D-01     1.0
                                                     7.27D-03  2.50D-01
 d= 0,ls=0.0,diis     3  -1111.9936768658  1.92D-01  1.17D-02  6.69D-01     1.4
                                                     5.15D-03  6.28D-01
 d= 0,ls=0.0,diis     4  -1112.2851768511 -2.91D-01  1.76D-03  3.52D-02     1.8
                                                     1.22D-03  3.69D-02
 d= 0,ls=0.0,diis     5  -1112.3023102816 -1.71D-02  4.49D-04  1.54D-03     2.2
                                                     3.92D-04  1.38D-03
 d= 0,ls=0.0,diis     6  -1112.3028721886 -5.62D-04  2.32D-04  3.69D-04     2.7
                                                     1.39D-04  3.30D-04
 d= 0,ls=0.0,diis     7  -1112.3030423494 -1.70D-04  4.24D-05  3.09D-05     3.1
                                                     3.69D-05  4.04D-05
 d= 0,ls=0.0,diis     8  -1112.3030560226 -1.37D-05  3.36D-05  6.52D-06     3.5
                                                     1.72D-05  4.53D-06
 d= 0,ls=0.0,diis     9  -1112.3030586156 -2.59D-06  1.19D-05  4.43D-07     3.9
                                                     8.67D-06  5.85D-07
 d= 0,ls=0.0,diis    10  -1112.3030588598 -2.44D-07  5.31D-06  2.03D-07     4.3
                                                     3.87D-06  2.35D-07
 d= 0,ls=0.0,diis    11  -1112.3030589795 -1.20D-07  1.05D-06  6.07D-09     4.8
                                                     7.50D-07  3.20D-09
 d= 0,ls=0.0,diis    12  -1112.3030589823 -2.81D-09  3.67D-07  8.64D-10     5.2
                                                     3.84D-07  1.25D-09
 d= 0,ls=0.0,diis    13  -1112.3030589826 -3.63D-10  1.97D-07  6.06D-10     5.6
                                                     1.46D-07  4.81D-10
 d= 0,ls=0.0,diis    14  -1112.3030589829 -2.99D-10  5.78D-08  6.74D-12     6.0
                                                     4.60D-08  1.19D-11


         Total DFT energy =    -1112.303058982925
      One electron energy =    -2246.759651228272
           Coulomb energy =      857.390755948839
          Exchange energy =      -80.188063080155
       Correlation energy =       -2.356915686334
 Nuclear repulsion energy =      359.621525001250

    Dispersion correction =       -0.010709938254

 Numeric. integr. density =       65.000000073103

     Total iterative time =      5.8s


 
                    DFT Final Alpha Molecular Orbital Analysis
                    ------------------------------------------
 
 Vector    1  Occ=1.000000D+00  E=-1.006826D+02
              MO Center= -7.3D-02,  1.5D-01,  1.9D+00, r^2= 3.1D-03
   Bfn.  Coefficient  Atom+Function         Bfn.  Coefficient  Atom+Function  
  ----- ------------  ---------------      ----- ------------  ---------------
    94      0.598196   9 Cl s                93      0.326069   9 Cl s         
    92      0.184384   9 Cl s         
 
 Vector    2  Occ=1.000000D+00  E=-1.006643D+02
              MO Center= -1.4D+00,  9.6D-01, -7.7D-01, r^2= 3.1D-03
   Bfn.  Coefficient  Atom+Function         Bfn.  Coefficient  Atom+Function  
  ----- ------------  ---------------      ----- ------------  ---------------
    72      0.598199   8 Cl s                71      0.326066   8 Cl s         
    70      0.184384   8 Cl s         
 
 Vector    3  Occ=1.000000D+00  E=-1.882183D+01
              MO Center=  6.7D-01, -1.7D+00, -1.3D+00, r^2= 1.5D-02
   Bfn.  Coefficient  Atom+Function         Bfn.  Coefficient  Atom+Function  
  ----- ------------  ---------------      ----- ------------  ---------------
    38      0.424545   5 O  s                39      0.366242   5 O  s         
    37      0.299504   5 O  s                40      0.055525   5 O  s         
 
 Vector    4  Occ=1.000000D+00  E=-1.002036D+01
              MO Center= -5.1D-01, -3.7D-01,  2.3D-01, r^2= 2.8D-02
   Bfn.  Coefficient  Atom+Function         Bfn.  Coefficient  Atom+Function  
  ----- ------------  ---------------      ----- ------------  ---------------
    56      0.424476   7 C  s                57      0.359469   7 C  s         
    55      0.308882   7 C  s                58      0.057100   7 C  s         
 
 Vector    5  Occ=1.000000D+00  E=-9.972832D+00
              MO Center=  7.2D-01, -5.8D-01, -6.0D-01, r^2= 2.8D-02
   Bfn.  Coefficient  Atom+Function         Bfn.  Coefficient  Atom+Function  
  ----- ------------  ---------------      ----- ------------  ---------------
     2      0.423980   1 C  s                 3      0.359577   1 C  s         
     1      0.308710   1 C  s                 4      0.058282   1 C  s         
 
 Vector    6  Occ=1.000000D+00  E=-9.912760D+00
              MO Center=  1.9D+00,  3.3D-01, -6.3D-01, r^2= 2.8D-02
   Bfn.  Coefficient  Atom+Function         Bfn.  Coefficient  Atom+Function  
  ----- ------------  ---------------      ----- ------------  ---------------
    17      0.424238   2 C  s                18      0.359419   2 C  s         
    16      0.308828   2 C  s                19      0.057684   2 C  s         
 
 Vector    7  Occ=1.000000D+00  E=-9.188005D+00
              MO Center= -7.3D-02,  1.4D-01,  1.9D+00, r^2= 6.6D-02
   Bfn.  Coefficient  Atom+Function         Bfn.  Coefficient  Atom+Function  
  ----- ------------  ---------------      ----- ------------  ---------------
    96      0.583337   9 Cl s                95      0.522973   9 Cl s         
    94     -0.293194   9 Cl s                93     -0.113711   9 Cl s         
    97      0.060086   9 Cl s                92     -0.054082   9 Cl s         
    98     -0.027484   9 Cl s         
 
 Vector    8  Occ=1.000000D+00  E=-9.170223D+00
              MO Center= -1.4D+00,  9.5D-01, -7.6D-01, r^2= 6.6D-02
   Bfn.  Coefficient  Atom+Function         Bfn.  Coefficient  Atom+Function  
  ----- ------------  ---------------      ----- ------------  ---------------
    74      0.583394   8 Cl s                73      0.522945   8 Cl s         
    72     -0.293191   8 Cl s                71     -0.113713   8 Cl s         
    75      0.059914   8 Cl s                70     -0.054082   8 Cl s         
    76     -0.026578   8 Cl s         
 
 Vector    9  Occ=1.000000D+00  E=-7.015290D+00
              MO Center= -7.2D-02,  1.5D-01,  1.9D+00, r^2= 5.8D-02
   Bfn.  Coefficient  Atom+Function         Bfn.  Coefficient  Atom+Function  
  ----- ------------  ---------------      ----- ------------  ---------------
   101      0.526580   9 Cl pz              104      0.397725   9 Cl pz        
    99      0.144319   9 Cl px              100      0.142505   9 Cl py        
   102      0.109012   9 Cl px              103      0.107628   9 Cl py        
   107      0.067068   9 Cl pz        
 
 Vector   10  Occ=1.000000D+00  E=-7.001616D+00
              MO Center= -7.3D-02,  1.5D-01,  1.9D+00, r^2= 5.8D-02
   Bfn.  Coefficient  Atom+Function         Bfn.  Coefficient  Atom+Function  
  ----- ------------  ---------------      ----- ------------  ---------------
   100      0.501200   9 Cl py              103      0.378395   9 Cl py        
    99     -0.251505   9 Cl px              102     -0.189881   9 Cl px        
   101     -0.066704   9 Cl pz              106      0.062725   9 Cl py        
   104     -0.050369   9 Cl pz              105     -0.031477   9 Cl px        
 
 Vector   11  Occ=1.000000D+00  E=-7.001116D+00
              MO Center= -7.3D-02,  1.5D-01,  1.9D+00, r^2= 5.8D-02
   Bfn.  Coefficient  Atom+Function         Bfn.  Coefficient  Atom+Function  
  ----- ------------  ---------------      ----- ------------  ---------------
    99      0.484557   9 Cl px              102      0.365829   9 Cl px        
   100      0.217637   9 Cl py              101     -0.191701   9 Cl pz        
   103      0.164315   9 Cl py              104     -0.144726   9 Cl pz        
   105      0.060645   9 Cl px              106      0.027233   9 Cl py        
 
 Vector   12  Occ=1.000000D+00  E=-6.997286D+00
              MO Center= -1.4D+00,  9.6D-01, -7.7D-01, r^2= 5.8D-02
   Bfn.  Coefficient  Atom+Function         Bfn.  Coefficient  Atom+Function  
  ----- ------------  ---------------      ----- ------------  ---------------
    78      0.388154   8 Cl py               79     -0.322108   8 Cl pz        
    81      0.293142   8 Cl py               77     -0.253035   8 Cl px        
    82     -0.243288   8 Cl pz               80     -0.191086   8 Cl px        
    84      0.049452   8 Cl py               85     -0.041023   8 Cl pz        
    83     -0.032244   8 Cl px        
 
 Vector   13  Occ=1.000000D+00  E=-6.984151D+00
              MO Center= -1.4D+00,  9.6D-01, -7.7D-01, r^2= 5.8D-02
   Bfn.  Coefficient  Atom+Function         Bfn.  Coefficient  Atom+Function  
  ----- ------------  ---------------      ----- ------------  ---------------
    79      0.461241   8 Cl pz               82      0.348240   8 Cl pz        
    78      0.300050   8 Cl py               81      0.226518   8 Cl py        
    77     -0.126911   8 Cl px               80     -0.095800   8 Cl px        
    85      0.057786   8 Cl pz               84      0.037600   8 Cl py        
 
 Vector   14  Occ=1.000000D+00  E=-6.983694D+00
              MO Center= -1.4D+00,  9.6D-01, -7.7D-01, r^2= 5.8D-02
   Bfn.  Coefficient  Atom+Function         Bfn.  Coefficient  Atom+Function  
  ----- ------------  ---------------      ----- ------------  ---------------
    77      0.488538   8 Cl px               80      0.368831   8 Cl px        
    78      0.279256   8 Cl py               81      0.210845   8 Cl py        
    83      0.061206   8 Cl px               79     -0.047245   8 Cl pz        
    82     -0.035672   8 Cl pz               84      0.034971   8 Cl py        
 
 Vector   15  Occ=1.000000D+00  E=-1.030193D+00
              MO Center=  7.8D-01, -1.5D+00, -1.2D+00, r^2= 6.0D-01
   Bfn.  Coefficient  Atom+Function         Bfn.  Coefficient  Atom+Function  
  ----- ------------  ---------------      ----- ------------  ---------------
    41      0.509971   5 O  s                42      0.262846   5 O  s         
     5      0.187337   1 C  s                39     -0.141696   5 O  s         
    38     -0.117676   5 O  s                40      0.113444   5 O  s         
     8     -0.087230   1 C  py               44      0.078779   5 O  py        
   117      0.077380  11 H  s                47      0.075923   5 O  py        
 
 Vector   16  Occ=1.000000D+00  E=-8.264771D-01
              MO Center= -3.8D-01,  2.5D-02,  4.8D-01, r^2= 2.2D+00
   Bfn.  Coefficient  Atom+Function         Bfn.  Coefficient  Atom+Function  
  ----- ------------  ---------------      ----- ------------  ---------------
    97      0.353875   9 Cl s                59      0.343421   7 C  s         
    98      0.270732   9 Cl s                75      0.268499   8 Cl s         
    96     -0.218242   9 Cl s                76      0.198505   8 Cl s         
    74     -0.165652   8 Cl s                95     -0.132309   9 Cl s         
    60      0.129686   7 C  s                 5      0.113697   1 C  s         
 
 Vector   17  Occ=1.000000D+00  E=-7.492411D-01
              MO Center= -6.8D-01,  4.0D-01,  4.4D-01, r^2= 2.9D+00
   Bfn.  Coefficient  Atom+Function         Bfn.  Coefficient  Atom+Function  
  ----- ------------  ---------------      ----- ------------  ---------------
    75      0.435491   8 Cl s                97     -0.425122   9 Cl s         
    76      0.360839   8 Cl s                98     -0.361728   9 Cl s         
    74     -0.268800   8 Cl s                96      0.262118   9 Cl s         
    73     -0.164410   8 Cl s                95      0.160767   9 Cl s         
    66     -0.095435   7 C  pz               63     -0.089587   7 C  pz        
 
 Vector   18  Occ=1.000000D+00  E=-7.114358D-01
              MO Center=  1.0D+00, -3.1D-02, -5.8D-01, r^2= 2.7D+00
   Bfn.  Coefficient  Atom+Function         Bfn.  Coefficient  Atom+Function  
  ----- ------------  ---------------      ----- ------------  ---------------
    20      0.375160   2 C  s                 5      0.287285   1 C  s         
    75     -0.216877   8 Cl s                76     -0.186012   8 Cl s         
    41     -0.137131   5 O  s                74      0.133253   8 Cl s         
    97     -0.125274   9 Cl s                98     -0.106800   9 Cl s         
    18     -0.104286   2 C  s                21      0.102330   2 C  s         
 
 Vector   19  Occ=1.000000D+00  E=-6.500534D-01
              MO Center=  5.5D-01, -3.9D-01, -5.1D-01, r^2= 3.5D+00
   Bfn.  Coefficient  Atom+Function         Bfn.  Coefficient  Atom+Function  
  ----- ------------  ---------------      ----- ------------  ---------------
    20      0.264558   2 C  s                59     -0.227500   7 C  s         
    75      0.215728   8 Cl s                76      0.201057   8 Cl s         
     5     -0.176527   1 C  s                97      0.163503   9 Cl s         
    98      0.146337   9 Cl s                74     -0.133025   8 Cl s         
     7      0.129214   1 C  px               45     -0.120625   5 O  pz        
 
 Vector   20  Occ=1.000000D+00  E=-5.656974D-01
              MO Center=  1.4D-01, -8.2D-01, -4.2D-01, r^2= 3.9D+00
   Bfn.  Coefficient  Atom+Function         Bfn.  Coefficient  Atom+Function  
  ----- ------------  ---------------      ----- ------------  ---------------
    59      0.337183   7 C  s                98     -0.209439   9 Cl s         
    97     -0.198330   9 Cl s                76     -0.184768   8 Cl s         
    44     -0.181393   5 O  py               45     -0.178840   5 O  pz        
    75     -0.175725   8 Cl s                60      0.173759   7 C  s         
    48     -0.147923   5 O  pz                5     -0.146519   1 C  s         
 
 Vector   21  Occ=1.000000D+00  E=-4.925865D-01
              MO Center=  5.5D-01, -3.2D-01, -3.2D-01, r^2= 3.2D+00
   Bfn.  Coefficient  Atom+Function         Bfn.  Coefficient  Atom+Function  
  ----- ------------  ---------------      ----- ------------  ---------------
     5      0.195642   1 C  s                61      0.184371   7 C  px        
    64      0.159593   7 C  px               20     -0.158478   2 C  s         
    22     -0.154539   2 C  px                8      0.148518   1 C  py        
     6      0.127204   1 C  s                21     -0.123611   2 C  s         
    11      0.116104   1 C  py               62      0.115389   7 C  py        
 
 Vector   22  Occ=1.000000D+00  E=-4.466961D-01
              MO Center=  8.3D-01, -3.7D-01, -4.7D-01, r^2= 3.2D+00
   Bfn.  Coefficient  Atom+Function         Bfn.  Coefficient  Atom+Function  
  ----- ------------  ---------------      ----- ------------  ---------------
     7      0.201255   1 C  px               10      0.195360   1 C  px        
    23     -0.190057   2 C  py               43      0.172193   5 O  px        
    60      0.169860   7 C  s                13      0.161214   1 C  px        
    46      0.144405   5 O  px               26     -0.133769   2 C  py        
    41     -0.133845   5 O  s                 5      0.119965   1 C  s         
 
 Vector   23  Occ=1.000000D+00  E=-4.339781D-01
              MO Center=  6.2D-01, -2.7D-01, -5.0D-01, r^2= 3.7D+00
   Bfn.  Coefficient  Atom+Function         Bfn.  Coefficient  Atom+Function  
  ----- ------------  ---------------      ----- ------------  ---------------
     9      0.175746   1 C  pz               24      0.159244   2 C  pz        
    12      0.157065   1 C  pz               45      0.141097   5 O  pz        
    76      0.141365   8 Cl s                27      0.133941   2 C  pz        
    44     -0.124153   5 O  py               48      0.120306   5 O  pz        
    87      0.120632   8 Cl py               75      0.115920   8 Cl s         
 
 Vector   24  Occ=1.000000D+00  E=-4.044602D-01
              MO Center= -2.2D-01, -1.3D-01,  7.3D-01, r^2= 3.2D+00
   Bfn.  Coefficient  Atom+Function         Bfn.  Coefficient  Atom+Function  
  ----- ------------  ---------------      ----- ------------  ---------------
   110      0.292930   9 Cl pz               65     -0.217735   7 C  py        
    62     -0.213042   7 C  py               98      0.196965   9 Cl s         
    66     -0.151096   7 C  pz              107      0.144232   9 Cl pz        
    63     -0.139167   7 C  pz                6      0.133741   1 C  s         
   113      0.130907   9 Cl pz               60     -0.130212   7 C  s         
 
 Vector   25  Occ=1.000000D+00  E=-3.851161D-01
              MO Center=  1.9D-01,  3.4D-01, -2.4D-01, r^2= 4.5D+00
   Bfn.  Coefficient  Atom+Function         Bfn.  Coefficient  Atom+Function  
  ----- ------------  ---------------      ----- ------------  ---------------
    87      0.200334   8 Cl py               88     -0.165608   8 Cl pz        
    76      0.164537   8 Cl s                66      0.149214   7 C  pz        
    24     -0.145663   2 C  pz               65     -0.140268   7 C  py        
   109     -0.134381   9 Cl py               32     -0.128355   3 H  s         
    62     -0.126526   7 C  py               27     -0.125237   2 C  pz        
 
 Vector   26  Occ=1.000000D+00  E=-3.723478D-01
              MO Center=  1.5D+00,  2.9D-01, -6.2D-01, r^2= 2.6D+00
   Bfn.  Coefficient  Atom+Function         Bfn.  Coefficient  Atom+Function  
  ----- ------------  ---------------      ----- ------------  ---------------
    22      0.204862   2 C  px               24     -0.179758   2 C  pz        
    53      0.174917   6 H  s                25      0.169534   2 C  px        
    35     -0.159958   4 H  s                27     -0.154089   2 C  pz        
    61      0.144956   7 C  px               52      0.133200   6 H  s         
    34     -0.129567   4 H  s                64      0.130056   7 C  px        
 
 Vector   27  Occ=1.000000D+00  E=-3.477568D-01
              MO Center=  1.1D+00, -8.3D-01, -8.4D-01, r^2= 3.1D+00
   Bfn.  Coefficient  Atom+Function         Bfn.  Coefficient  Atom+Function  
  ----- ------------  ---------------      ----- ------------  ---------------
    45      0.266181   5 O  pz               48      0.228047   5 O  pz        
    44     -0.181268   5 O  py               43      0.157295   5 O  px        
    51      0.157681   5 O  pz               47     -0.154455   5 O  py        
    32     -0.142385   3 H  s                24     -0.137780   2 C  pz        
    46      0.134682   5 O  px               27     -0.126626   2 C  pz        
 
 Vector   28  Occ=1.000000D+00  E=-3.287656D-01
              MO Center=  7.3D-01, -1.1D+00, -9.2D-01, r^2= 2.7D+00
   Bfn.  Coefficient  Atom+Function         Bfn.  Coefficient  Atom+Function  
  ----- ------------  ---------------      ----- ------------  ---------------
    43      0.292111   5 O  px               46      0.246234   5 O  px        
    44      0.220669   5 O  py               21     -0.185610   2 C  s         
    47      0.185572   5 O  py               60      0.184656   7 C  s         
    26      0.155018   2 C  py               23      0.151360   2 C  py        
    50      0.146788   5 O  py               41     -0.145412   5 O  s         
 
 Vector   29  Occ=1.000000D+00  E=-2.825613D-01
              MO Center= -4.4D-01,  3.3D-01,  1.0D+00, r^2= 3.4D+00
   Bfn.  Coefficient  Atom+Function         Bfn.  Coefficient  Atom+Function  
  ----- ------------  ---------------      ----- ------------  ---------------
   109      0.430661   9 Cl py              112      0.279581   9 Cl py        
    87      0.262946   8 Cl py              106      0.200139   9 Cl py        
    90      0.169032   8 Cl py              100     -0.128469   9 Cl py        
    84      0.118475   8 Cl py               68      0.115539   7 C  py        
   108     -0.113443   9 Cl px              103     -0.103150   9 Cl py        
 
 Vector   30  Occ=1.000000D+00  E=-2.806067D-01
              MO Center= -2.8D-01,  2.6D-01,  1.3D+00, r^2= 3.1D+00
   Bfn.  Coefficient  Atom+Function         Bfn.  Coefficient  Atom+Function  
  ----- ------------  ---------------      ----- ------------  ---------------
   108      0.432758   9 Cl px              111      0.291679   9 Cl px        
   105      0.203106   9 Cl px               86     -0.202034   8 Cl px        
   110     -0.155120   9 Cl pz               89     -0.143617   8 Cl px        
    99     -0.129966   9 Cl px              109      0.126547   9 Cl py        
    87     -0.111057   8 Cl py              113     -0.105845   9 Cl pz        
 
 Vector   31  Occ=1.000000D+00  E=-2.652649D-01
              MO Center= -9.8D-01,  6.7D-01, -6.2D-02, r^2= 3.3D+00
   Bfn.  Coefficient  Atom+Function         Bfn.  Coefficient  Atom+Function  
  ----- ------------  ---------------      ----- ------------  ---------------
    88      0.419759   8 Cl pz               91      0.279928   8 Cl pz        
   109     -0.223152   9 Cl py               87      0.209132   8 Cl py        
    85      0.193841   8 Cl pz              110      0.178123   9 Cl pz        
   112     -0.146140   9 Cl py               90      0.134909   8 Cl py        
    79     -0.124665   8 Cl pz              113      0.121008   9 Cl pz        
 
 Vector   32  Occ=1.000000D+00  E=-2.635973D-01
              MO Center= -1.0D+00,  6.4D-01, -2.9D-01, r^2= 2.9D+00
   Bfn.  Coefficient  Atom+Function         Bfn.  Coefficient  Atom+Function  
  ----- ------------  ---------------      ----- ------------  ---------------
    86      0.415483   8 Cl px               89      0.288024   8 Cl px        
   108      0.205285   9 Cl px               87      0.200349   8 Cl py        
    83      0.197837   8 Cl px              111      0.138337   9 Cl px        
    90      0.135025   8 Cl py              115      0.131797  10 H  s         
    77     -0.125951   8 Cl px                5     -0.110010   1 C  s         
 
 Vector   33  Occ=1.000000D+00  E=-1.291809D-01
              MO Center=  5.0D-01, -5.0D-01, -6.0D-01, r^2= 2.9D+00
   Bfn.  Coefficient  Atom+Function         Bfn.  Coefficient  Atom+Function  
  ----- ------------  ---------------      ----- ------------  ---------------
    12      0.308509   1 C  pz                9      0.282210   1 C  pz        
    15      0.210878   1 C  pz               11     -0.206292   1 C  py        
    51     -0.206341   5 O  pz               10      0.199488   1 C  px        
     8     -0.190100   1 C  py               45     -0.183988   5 O  pz        
    76      0.179480   8 Cl s                 7      0.176171   1 C  px        
 
 Vector   34  Occ=0.000000D+00  E=-6.042379D-02
              MO Center= -3.3D-01, -4.8D-02,  2.0D-01, r^2= 4.8D+00
   Bfn.  Coefficient  Atom+Function         Bfn.  Coefficient  Atom+Function  
  ----- ------------  ---------------      ----- ------------  ---------------
    60      1.273539   7 C  s               113      0.445472   9 Cl pz        
    13      0.419180   1 C  px              119     -0.415046  11 H  s         
    98     -0.407314   9 Cl s                76     -0.362233   8 Cl s         
    59      0.349356   7 C  s                42      0.338924   5 O  s         
    91     -0.322106   8 Cl pz               65      0.314572   7 C  py        
 
 Vector   35  Occ=0.000000D+00  E=-2.112811D-02
              MO Center=  1.3D+00, -1.3D+00, -1.6D+00, r^2= 5.1D+00
   Bfn.  Coefficient  Atom+Function         Bfn.  Coefficient  Atom+Function  
  ----- ------------  ---------------      ----- ------------  ---------------
   119      1.193581  11 H  s                21     -0.641058   2 C  s         
    54      0.474392   6 H  s                42     -0.445373   5 O  s         
    36      0.291348   4 H  s                49     -0.273488   5 O  px        
    76     -0.260764   8 Cl s                15      0.258891   1 C  pz        
    51      0.256990   5 O  pz                6     -0.252551   1 C  s         
 
 Vector   36  Occ=0.000000D+00  E= 4.599009D-03
              MO Center=  3.1D-03, -1.3D-01,  3.3D-01, r^2= 4.5D+00
   Bfn.  Coefficient  Atom+Function         Bfn.  Coefficient  Atom+Function  
  ----- ------------  ---------------      ----- ------------  ---------------
    33      0.705726   3 H  s                69      0.708886   7 C  pz        
    98     -0.616746   9 Cl s                21     -0.577141   2 C  s         
    66      0.502097   7 C  pz              113      0.457649   9 Cl pz        
    76      0.434864   8 Cl s                90     -0.358509   8 Cl py        
    63      0.335326   7 C  pz               67      0.309733   7 C  px        
 
 Vector   37  Occ=0.000000D+00  E= 3.497327D-02
              MO Center=  1.2D+00, -2.6D-01, -5.4D-01, r^2= 8.2D+00
   Bfn.  Coefficient  Atom+Function         Bfn.  Coefficient  Atom+Function  
  ----- ------------  ---------------      ----- ------------  ---------------
    21      1.836643   2 C  s                60      1.285904   7 C  s         
   116     -1.140152  10 H  s                54     -1.103503   6 H  s         
    33     -0.980971   3 H  s                 6     -0.965176   1 C  s         
    68     -0.690668   7 C  py              119      0.607204  11 H  s         
    36     -0.391532   4 H  s                14      0.311355   1 C  py        
 
 Vector   38  Occ=0.000000D+00  E= 5.528541D-02
              MO Center= -1.9D-01, -9.3D-01,  1.4D-01, r^2= 7.3D+00
   Bfn.  Coefficient  Atom+Function         Bfn.  Coefficient  Atom+Function  
  ----- ------------  ---------------      ----- ------------  ---------------
   116      2.264900  10 H  s                60     -1.448432   7 C  s         
    21      1.382881   2 C  s                68      1.054590   7 C  py        
    33     -1.006299   3 H  s                67      0.733357   7 C  px        
     6     -0.534343   1 C  s                36     -0.528427   4 H  s         
   119      0.319618  11 H  s                13     -0.261808   1 C  px        
 
 Vector   39  Occ=0.000000D+00  E= 7.250710D-02
              MO Center=  1.8D+00,  4.3D-01, -1.0D+00, r^2= 5.5D+00
   Bfn.  Coefficient  Atom+Function         Bfn.  Coefficient  Atom+Function  
  ----- ------------  ---------------      ----- ------------  ---------------
    54      2.176192   6 H  s                36     -1.600779   4 H  s         
    30      1.419221   2 C  pz              116     -0.839322  10 H  s         
    33     -0.767451   3 H  s                68     -0.681304   7 C  py        
    14      0.646557   1 C  py               29      0.577072   2 C  py        
    21     -0.368190   2 C  s                67     -0.358348   7 C  px        
 
 Vector   40  Occ=0.000000D+00  E= 8.723036D-02
              MO Center=  1.9D+00,  5.5D-01, -1.1D-01, r^2= 4.9D+00
   Bfn.  Coefficient  Atom+Function         Bfn.  Coefficient  Atom+Function  
  ----- ------------  ---------------      ----- ------------  ---------------
    33      2.057903   3 H  s                36     -1.945185   4 H  s         
    28     -1.084810   2 C  px               29      1.055894   2 C  py        
    21      0.971287   2 C  s                54     -0.756981   6 H  s         
    14     -0.689913   1 C  py               30     -0.673721   2 C  pz        
    60     -0.645000   7 C  s                15      0.484894   1 C  pz        
 
 Vector   41  Occ=0.000000D+00  E= 1.175030D-01
              MO Center=  1.6D+00,  1.6D-01, -5.6D-01, r^2= 5.5D+00
   Bfn.  Coefficient  Atom+Function         Bfn.  Coefficient  Atom+Function  
  ----- ------------  ---------------      ----- ------------  ---------------
     6      4.361168   1 C  s                28      1.683108   2 C  px        
    29      1.414635   2 C  py               21     -1.260544   2 C  s         
    60     -1.063930   7 C  s                67     -1.054380   7 C  px        
    14      0.884631   1 C  py               54     -0.680123   6 H  s         
    33     -0.518585   3 H  s                42     -0.496720   5 O  s         
 
 Vector   42  Occ=0.000000D+00  E= 1.407461D-01
              MO Center=  2.9D-01,  9.1D-02,  1.4D-01, r^2= 7.4D+00
   Bfn.  Coefficient  Atom+Function         Bfn.  Coefficient  Atom+Function  
  ----- ------------  ---------------      ----- ------------  ---------------
    13      2.539132   1 C  px               60      2.239955   7 C  s         
    67      2.094228   7 C  px               69     -1.752590   7 C  pz        
    21     -1.691074   2 C  s                 6     -1.540718   1 C  s         
    28      1.538092   2 C  px              116      1.140955  10 H  s         
    29      1.038480   2 C  py               14      1.006927   1 C  py        
 
 Vector   43  Occ=0.000000D+00  E= 1.574717D-01
              MO Center=  8.3D-01, -8.2D-01, -9.9D-01, r^2= 5.9D+00
   Bfn.  Coefficient  Atom+Function         Bfn.  Coefficient  Atom+Function  
  ----- ------------  ---------------      ----- ------------  ---------------
    14      2.309839   1 C  py               15      1.702209   1 C  pz        
    42      1.471117   5 O  s                29     -1.426944   2 C  py        
    36      1.314869   4 H  s                28      1.249173   2 C  px        
    60     -1.252396   7 C  s                67     -1.175440   7 C  px        
    54     -1.161038   6 H  s                30     -0.959503   2 C  pz        
 
 Vector   44  Occ=0.000000D+00  E= 1.794968D-01
              MO Center=  1.9D-01,  1.4D-04,  4.5D-02, r^2= 6.6D+00
   Bfn.  Coefficient  Atom+Function         Bfn.  Coefficient  Atom+Function  
  ----- ------------  ---------------      ----- ------------  ---------------
    69      1.651583   7 C  pz               30      1.442854   2 C  pz        
    67      1.013428   7 C  px               98     -0.789800   9 Cl s         
    15     -0.769011   1 C  pz               33     -0.709686   3 H  s         
    76      0.666123   8 Cl s                54      0.661018   6 H  s         
    13     -0.564467   1 C  px               21      0.531114   2 C  s         
 
 Vector   45  Occ=0.000000D+00  E= 2.111788D-01
              MO Center=  1.8D+00, -1.6D-01, -5.2D-01, r^2= 5.4D+00
   Bfn.  Coefficient  Atom+Function         Bfn.  Coefficient  Atom+Function  
  ----- ------------  ---------------      ----- ------------  ---------------
    13      2.237850   1 C  px               29      2.198994   2 C  py        
    60      2.035051   7 C  s                21     -1.442253   2 C  s         
    30      1.347392   2 C  pz               68     -1.246070   7 C  py        
    15     -1.206725   1 C  pz               36     -1.106413   4 H  s         
    14      0.983803   1 C  py                6     -0.764918   1 C  s         
 
 Vector   46  Occ=0.000000D+00  E= 2.240551D-01
              MO Center=  4.1D-01,  7.2D-02, -4.4D-01, r^2= 6.9D+00
   Bfn.  Coefficient  Atom+Function         Bfn.  Coefficient  Atom+Function  
  ----- ------------  ---------------      ----- ------------  ---------------
    30      1.866556   2 C  pz               13     -1.570666   1 C  px        
    21      1.139276   2 C  s                68      1.140548   7 C  py        
    15     -1.098225   1 C  pz               54      0.935743   6 H  s         
    14     -0.704734   1 C  py               76     -0.672863   8 Cl s         
     6     -0.627688   1 C  s                29     -0.580986   2 C  py        
 
 Vector   47  Occ=0.000000D+00  E= 2.488868D-01
              MO Center=  1.4D-01,  3.4D-02,  5.5D-02, r^2= 8.1D+00
   Bfn.  Coefficient  Atom+Function         Bfn.  Coefficient  Atom+Function  
  ----- ------------  ---------------      ----- ------------  ---------------
    13      3.256384   1 C  px               21     -1.616332   2 C  s         
    15     -1.474700   1 C  pz               60      1.469455   7 C  s         
    68     -1.448740   7 C  py               30      1.359587   2 C  pz        
    69     -1.152272   7 C  pz               33     -0.854478   3 H  s         
    98      0.786320   9 Cl s               113     -0.651135   9 Cl pz        
 
 Vector   48  Occ=0.000000D+00  E= 2.610655D-01
              MO Center=  6.0D-01, -6.6D-01, -4.5D-01, r^2= 6.0D+00
   Bfn.  Coefficient  Atom+Function         Bfn.  Coefficient  Atom+Function  
  ----- ------------  ---------------      ----- ------------  ---------------
    15      2.297423   1 C  pz               60     -1.475084   7 C  s         
    13     -1.397657   1 C  px               69     -1.247467   7 C  pz        
    14     -1.218426   1 C  py               21      1.125652   2 C  s         
    68      0.711791   7 C  py               28     -0.668847   2 C  px        
    30     -0.537474   2 C  pz               36      0.520728   4 H  s         
 
 Vector   49  Occ=0.000000D+00  E= 2.862804D-01
              MO Center=  1.3D-01, -2.3D-01, -5.6D-01, r^2= 5.6D+00
   Bfn.  Coefficient  Atom+Function         Bfn.  Coefficient  Atom+Function  
  ----- ------------  ---------------      ----- ------------  ---------------
    13      2.027458   1 C  px               67     -1.924706   7 C  px        
    21     -1.489606   2 C  s                54      1.385496   6 H  s         
     6      1.267516   1 C  s                29      1.241460   2 C  py        
    36     -1.200122   4 H  s                15      0.972046   1 C  pz        
    30      0.974687   2 C  pz               69     -0.788332   7 C  pz        
 
 Vector   50  Occ=0.000000D+00  E= 2.926378D-01
              MO Center=  8.6D-01, -1.1D+00, -1.1D+00, r^2= 6.6D+00
   Bfn.  Coefficient  Atom+Function         Bfn.  Coefficient  Atom+Function  
  ----- ------------  ---------------      ----- ------------  ---------------
    60      1.511133   7 C  s               119     -1.423942  11 H  s         
    14     -1.244778   1 C  py              118      1.175766  11 H  s         
   116      1.020563  10 H  s                68      0.800938   7 C  py        
     6     -0.780454   1 C  s                67      0.688694   7 C  px        
    21      0.648543   2 C  s               115     -0.560876  10 H  s         
 
 Vector   51  Occ=0.000000D+00  E= 3.177774D-01
              MO Center=  1.2D-01, -2.9D-01,  6.9D-01, r^2= 7.1D+00
   Bfn.  Coefficient  Atom+Function         Bfn.  Coefficient  Atom+Function  
  ----- ------------  ---------------      ----- ------------  ---------------
    60      3.455602   7 C  s                13      3.056317   1 C  px        
    21     -1.690310   2 C  s               113      1.206375   9 Cl pz        
    67      1.101657   7 C  px               36     -1.012737   4 H  s         
    69     -0.994381   7 C  pz               14      0.974417   1 C  py        
    29      0.931582   2 C  py               59     -0.867229   7 C  s         
 
 Vector   52  Occ=0.000000D+00  E= 3.271256D-01
              MO Center=  1.5D-01, -9.2D-02, -5.7D-01, r^2= 7.1D+00
   Bfn.  Coefficient  Atom+Function         Bfn.  Coefficient  Atom+Function  
  ----- ------------  ---------------      ----- ------------  ---------------
    60      2.006598   7 C  s                13      1.400883   1 C  px        
    29      1.004459   2 C  py               14     -0.998107   1 C  py        
    15     -0.921543   1 C  pz               91     -0.822261   8 Cl pz        
     5     -0.792165   1 C  s                67     -0.763921   7 C  px        
    11      0.686381   1 C  py              116     -0.515966  10 H  s         
 
 Vector   53  Occ=0.000000D+00  E= 3.314259D-01
              MO Center= -4.0D-01,  3.7D-01, -8.8D-02, r^2= 8.1D+00
   Bfn.  Coefficient  Atom+Function         Bfn.  Coefficient  Atom+Function  
  ----- ------------  ---------------      ----- ------------  ---------------
    14      1.982233   1 C  py               68     -1.491630   7 C  py        
    21     -1.379444   2 C  s                 6      1.008647   1 C  s         
    90      0.999250   8 Cl py              113     -0.756441   9 Cl pz        
    89     -0.653065   8 Cl px               29     -0.623963   2 C  py        
    87     -0.611481   8 Cl py               50     -0.604356   5 O  py        
 
 Vector   54  Occ=0.000000D+00  E= 3.501776D-01
              MO Center=  1.4D-01, -6.6D-02,  9.0D-02, r^2= 7.4D+00
   Bfn.  Coefficient  Atom+Function         Bfn.  Coefficient  Atom+Function  
  ----- ------------  ---------------      ----- ------------  ---------------
    68     -1.792206   7 C  py               14      1.636366   1 C  py        
    36      1.353009   4 H  s                29     -1.301545   2 C  py        
    15      1.266844   1 C  pz               13     -1.244327   1 C  px        
    67     -1.082977   7 C  px              116     -0.907946  10 H  s         
   119      0.883406  11 H  s                30     -0.751034   2 C  pz        
 
 Vector   55  Occ=0.000000D+00  E= 3.621104D-01
              MO Center=  7.3D-02,  4.7D-01,  6.7D-01, r^2= 7.0D+00
   Bfn.  Coefficient  Atom+Function         Bfn.  Coefficient  Atom+Function  
  ----- ------------  ---------------      ----- ------------  ---------------
    68      2.670473   7 C  py              116      2.078628  10 H  s         
    67      1.725939   7 C  px               60     -1.510819   7 C  s         
   112     -1.270540   9 Cl py               36     -1.241992   4 H  s         
    29      0.989620   2 C  py               90     -0.824258   8 Cl py        
    21      0.801416   2 C  s               109      0.682021   9 Cl py        
 
 Vector   56  Occ=0.000000D+00  E= 3.839250D-01
              MO Center=  4.5D-01, -7.1D-01, -5.2D-01, r^2= 6.7D+00
   Bfn.  Coefficient  Atom+Function         Bfn.  Coefficient  Atom+Function  
  ----- ------------  ---------------      ----- ------------  ---------------
    13      3.878855   1 C  px              116      3.100814  10 H  s         
    67      2.491320   7 C  px               68      2.335671   7 C  py        
    60      2.302546   7 C  s                15     -2.288298   1 C  pz        
    29      2.029002   2 C  py               54     -1.594667   6 H  s         
    36     -1.476610   4 H  s                28      0.925483   2 C  px        
 
 Vector   57  Occ=0.000000D+00  E= 3.988123D-01
              MO Center=  8.7D-01,  2.8D-01,  2.9D-01, r^2= 7.7D+00
   Bfn.  Coefficient  Atom+Function         Bfn.  Coefficient  Atom+Function  
  ----- ------------  ---------------      ----- ------------  ---------------
    33      2.406214   3 H  s                13     -1.731376   1 C  px        
    21      1.630574   2 C  s                 6     -1.505805   1 C  s         
    30     -1.202206   2 C  pz               28     -1.170473   2 C  px        
    36     -1.113328   4 H  s                32     -1.043351   3 H  s         
    14     -1.028731   1 C  py               67     -0.955206   7 C  px        
 
 Vector   58  Occ=0.000000D+00  E= 4.172492D-01
              MO Center=  7.5D-01,  5.7D-01, -8.0D-01, r^2= 7.8D+00
   Bfn.  Coefficient  Atom+Function         Bfn.  Coefficient  Atom+Function  
  ----- ------------  ---------------      ----- ------------  ---------------
    54      2.279685   6 H  s                33     -1.831080   3 H  s         
    30      1.748605   2 C  pz                6     -1.720215   1 C  s         
    68      1.598236   7 C  py               21      1.112002   2 C  s         
   116      1.107850  10 H  s                53     -1.051706   6 H  s         
    14     -0.995715   1 C  py               91     -0.946523   8 Cl pz        
 
 Vector   59  Occ=0.000000D+00  E= 4.234652D-01
              MO Center= -6.7D-01,  1.4D-01,  2.1D-01, r^2= 7.3D+00
   Bfn.  Coefficient  Atom+Function         Bfn.  Coefficient  Atom+Function  
  ----- ------------  ---------------      ----- ------------  ---------------
   116      2.347020  10 H  s                13      1.717401   1 C  px        
    67      1.238689   7 C  px               68      1.123142   7 C  py        
    15     -1.115533   1 C  pz               21     -1.085084   2 C  s         
    33     -0.958964   3 H  s                69     -0.956503   7 C  pz        
    91      0.914338   8 Cl pz              112     -0.878376   9 Cl py        
 
 Vector   60  Occ=0.000000D+00  E= 4.267041D-01
              MO Center= -3.0D-01, -2.7D-01,  1.9D-01, r^2= 7.7D+00
   Bfn.  Coefficient  Atom+Function         Bfn.  Coefficient  Atom+Function  
  ----- ------------  ---------------      ----- ------------  ---------------
   116      1.820304  10 H  s                21     -1.721296   2 C  s         
    14      1.669732   1 C  py               60     -1.566965   7 C  s         
    67      1.256971   7 C  px               30     -1.133611   2 C  pz        
    33      1.087649   3 H  s               115     -0.875996  10 H  s         
   112      0.844575   9 Cl py              119      0.716860  11 H  s         
 
 Vector   61  Occ=0.000000D+00  E= 4.402260D-01
              MO Center=  7.7D-01,  1.6D-01, -7.6D-01, r^2= 5.9D+00
   Bfn.  Coefficient  Atom+Function         Bfn.  Coefficient  Atom+Function  
  ----- ------------  ---------------      ----- ------------  ---------------
    54     -1.694221   6 H  s                36      1.647443   4 H  s         
    29     -0.960798   2 C  py               30     -0.923088   2 C  pz        
    35     -0.836990   4 H  s                53      0.803923   6 H  s         
    28      0.750177   2 C  px               20     -0.689965   2 C  s         
    26      0.676336   2 C  py               15      0.666042   1 C  pz        
 
 Vector   62  Occ=0.000000D+00  E= 4.476381D-01
              MO Center=  1.5D-01,  5.7D-02,  6.1D-01, r^2= 7.9D+00
   Bfn.  Coefficient  Atom+Function         Bfn.  Coefficient  Atom+Function  
  ----- ------------  ---------------      ----- ------------  ---------------
    21      1.580529   2 C  s                69      1.518375   7 C  pz        
    36      1.433947   4 H  s                30     -1.398534   2 C  pz        
    54     -1.286093   6 H  s               111      1.292018   9 Cl px        
    13     -1.226232   1 C  px                6      1.199193   1 C  s         
    29     -0.970843   2 C  py               28      0.895926   2 C  px        
 
 Vector   63  Occ=0.000000D+00  E= 4.739485D-01
              MO Center=  1.2D+00,  3.1D-02, -4.5D-01, r^2= 4.1D+00
   Bfn.  Coefficient  Atom+Function         Bfn.  Coefficient  Atom+Function  
  ----- ------------  ---------------      ----- ------------  ---------------
     6      5.373074   1 C  s                 5     -2.114753   1 C  s         
    21     -2.032257   2 C  s                14      2.018629   1 C  py        
    28      1.683019   2 C  px               60     -0.943086   7 C  s         
    68     -0.940634   7 C  py               20      0.921726   2 C  s         
    13      0.884729   1 C  px               33     -0.778420   3 H  s         
 
 Vector   64  Occ=0.000000D+00  E= 4.838966D-01
              MO Center=  1.3D+00,  5.9D-01, -2.2D-01, r^2= 5.8D+00
   Bfn.  Coefficient  Atom+Function         Bfn.  Coefficient  Atom+Function  
  ----- ------------  ---------------      ----- ------------  ---------------
     6      3.478135   1 C  s                21      2.973839   2 C  s         
    36     -2.327611   4 H  s                20     -2.070755   2 C  s         
     5     -1.587053   1 C  s                29      1.194075   2 C  py        
    67     -1.127958   7 C  px               28      1.121223   2 C  px        
    33     -1.081985   3 H  s                54     -0.996006   6 H  s         
 
 Vector   65  Occ=0.000000D+00  E= 4.970334D-01
              MO Center=  5.4D-01, -1.2D+00, -1.1D+00, r^2= 4.8D+00
   Bfn.  Coefficient  Atom+Function         Bfn.  Coefficient  Atom+Function  
  ----- ------------  ---------------      ----- ------------  ---------------
    13      2.153715   1 C  px               51     -1.525494   5 O  pz        
    21     -1.491997   2 C  s                14     -0.999227   1 C  py        
    30     -0.954676   2 C  pz              116      0.936634  10 H  s         
    29      0.919099   2 C  py               60      0.839630   7 C  s         
    68      0.840503   7 C  py               49     -0.788352   5 O  px        
 
 Vector   66  Occ=0.000000D+00  E= 5.110284D-01
              MO Center=  9.3D-01, -1.5D+00, -1.3D+00, r^2= 4.8D+00
   Bfn.  Coefficient  Atom+Function         Bfn.  Coefficient  Atom+Function  
  ----- ------------  ---------------      ----- ------------  ---------------
     6      3.477451   1 C  s                21     -2.346103   2 C  s         
    50     -1.887768   5 O  py              119     -1.570626  11 H  s         
    60     -1.380297   7 C  s                54      1.116567   6 H  s         
    14      0.969676   1 C  py               51     -0.891871   5 O  pz        
    29     -0.827537   2 C  py               59      0.685740   7 C  s         
 
 Vector   67  Occ=0.000000D+00  E= 5.951107D-01
              MO Center=  6.0D-01, -7.4D-01, -7.0D-01, r^2= 5.7D+00
   Bfn.  Coefficient  Atom+Function         Bfn.  Coefficient  Atom+Function  
  ----- ------------  ---------------      ----- ------------  ---------------
    60      6.054029   7 C  s                 6     -5.278732   1 C  s         
    13      3.290617   1 C  px               21      3.292969   2 C  s         
    49     -2.015252   5 O  px               15     -1.367753   1 C  pz        
    20     -1.349421   2 C  s                59     -1.191300   7 C  s         
    51      0.986443   5 O  pz                5      0.870793   1 C  s         
 
 Vector   68  Occ=0.000000D+00  E= 6.767066D-01
              MO Center=  3.4D-01, -1.1D+00, -6.9D-01, r^2= 5.5D+00
   Bfn.  Coefficient  Atom+Function         Bfn.  Coefficient  Atom+Function  
  ----- ------------  ---------------      ----- ------------  ---------------
     6      7.444983   1 C  s                21     -6.263383   2 C  s         
    60     -3.576846   7 C  s                49     -2.689688   5 O  px        
    13      2.359385   1 C  px               14      1.963570   1 C  py        
    28      1.677725   2 C  px               51      1.649329   5 O  pz        
     5     -1.574414   1 C  s                59      1.548623   7 C  s         
 
 Vector   69  Occ=0.000000D+00  E= 7.162163D-01
              MO Center=  3.8D-01, -8.5D-03, -5.4D-02, r^2= 6.1D+00
   Bfn.  Coefficient  Atom+Function         Bfn.  Coefficient  Atom+Function  
  ----- ------------  ---------------      ----- ------------  ---------------
    60    -10.572948   7 C  s                21      9.848412   2 C  s         
    13     -7.146761   1 C  px               59      3.215847   7 C  s         
    15      2.662595   1 C  pz               14     -2.353818   1 C  py        
    29     -2.239847   2 C  py               67     -2.168926   7 C  px        
    20     -2.115477   2 C  s                28     -2.026813   2 C  px        
 
 Vector   70  Occ=0.000000D+00  E= 9.063672D-01
              MO Center= -4.5D-01,  2.3D-01,  2.8D-01, r^2= 5.2D+00
   Bfn.  Coefficient  Atom+Function         Bfn.  Coefficient  Atom+Function  
  ----- ------------  ---------------      ----- ------------  ---------------
    76      2.544321   8 Cl s                98     -2.354037   9 Cl s         
    75     -1.961819   8 Cl s                97      1.778464   9 Cl s         
    21      1.559393   2 C  s                 6     -1.268865   1 C  s         
    42     -1.229285   5 O  s                69      0.899179   7 C  pz        
    30      0.825463   2 C  pz               14     -0.815501   1 C  py        
 
 Vector   71  Occ=0.000000D+00  E= 9.664982D-01
              MO Center= -1.7D-01,  7.9D-02,  4.6D-01, r^2= 5.4D+00
   Bfn.  Coefficient  Atom+Function         Bfn.  Coefficient  Atom+Function  
  ----- ------------  ---------------      ----- ------------  ---------------
    98      3.092918   9 Cl s                13      2.964727   1 C  px        
    21     -2.492333   2 C  s                76      2.300521   8 Cl s         
    42     -2.192148   5 O  s                97     -2.101445   9 Cl s         
     6      1.697075   1 C  s                75     -1.547752   8 Cl s         
    15     -1.271119   1 C  pz               41      1.162367   5 O  s         
 
 Vector   72  Occ=0.000000D+00  E= 1.097959D+00
              MO Center=  1.3D-01, -1.0D+00, -1.0D+00, r^2= 4.3D+00
   Bfn.  Coefficient  Atom+Function         Bfn.  Coefficient  Atom+Function  
  ----- ------------  ---------------      ----- ------------  ---------------
    42      5.390297   5 O  s                41     -2.679247   5 O  s         
    14      2.078452   1 C  py               76      1.964347   8 Cl s         
     6     -1.716065   1 C  s                21     -1.408881   2 C  s         
    60     -1.332932   7 C  s                75     -1.284772   8 Cl s         
    15      1.177752   1 C  pz               50      1.134109   5 O  py        
 
 Vector   73  Occ=0.000000D+00  E= 1.311275D+00
              MO Center=  5.0D-01, -4.3D-01, -3.1D-01, r^2= 2.9D+00
   Bfn.  Coefficient  Atom+Function         Bfn.  Coefficient  Atom+Function  
  ----- ------------  ---------------      ----- ------------  ---------------
    11      1.655045   1 C  py               42      1.356600   5 O  s         
    64     -1.190298   7 C  px               60     -1.024998   7 C  s         
    68     -0.957365   7 C  py               98      0.824925   9 Cl s         
    10     -0.814141   1 C  px               76      0.780928   8 Cl s         
     8     -0.763589   1 C  py               12      0.734055   1 C  pz        
 
 Vector   74  Occ=0.000000D+00  E= 1.317684D+00
              MO Center=  3.4D-01, -4.6D-01, -3.5D-01, r^2= 2.3D+00
   Bfn.  Coefficient  Atom+Function         Bfn.  Coefficient  Atom+Function  
  ----- ------------  ---------------      ----- ------------  ---------------
    12      1.420920   1 C  pz               66      0.996496   7 C  pz        
     9     -0.900138   1 C  pz               98      0.749601   9 Cl s         
    15     -0.730057   1 C  pz               63     -0.696630   7 C  pz        
    60     -0.600654   7 C  s                69     -0.591771   7 C  pz        
    97     -0.498478   9 Cl s                13     -0.491189   1 C  px        
 
 Vector   75  Occ=0.000000D+00  E= 1.372069D+00
              MO Center=  4.9D-01, -2.2D-01, -2.3D-01, r^2= 3.2D+00
   Bfn.  Coefficient  Atom+Function         Bfn.  Coefficient  Atom+Function  
  ----- ------------  ---------------      ----- ------------  ---------------
    60      1.946234   7 C  s                21     -1.895179   2 C  s         
    10      1.858953   1 C  px               64      1.647308   7 C  px        
    67     -1.430637   7 C  px              116     -1.249755  10 H  s         
    26      1.205835   2 C  py               11      1.187983   1 C  py        
    25      1.120812   2 C  px               61     -0.749245   7 C  px        
 
 Vector   76  Occ=0.000000D+00  E= 1.428091D+00
              MO Center=  5.5D-01, -1.3D-01, -2.9D-01, r^2= 3.2D+00
   Bfn.  Coefficient  Atom+Function         Bfn.  Coefficient  Atom+Function  
  ----- ------------  ---------------      ----- ------------  ---------------
    68      1.133157   7 C  py               66      1.077517   7 C  pz        
    33     -1.044759   3 H  s                25     -1.029137   2 C  px        
    65     -0.920818   7 C  py               30      0.895630   2 C  pz        
    69     -0.879225   7 C  pz               14     -0.762663   1 C  py        
    27     -0.735933   2 C  pz               10     -0.709708   1 C  px        
 
 Vector   77  Occ=0.000000D+00  E= 1.474132D+00
              MO Center=  4.9D-01,  3.4D-02, -1.5D-01, r^2= 4.0D+00
   Bfn.  Coefficient  Atom+Function         Bfn.  Coefficient  Atom+Function  
  ----- ------------  ---------------      ----- ------------  ---------------
    21      2.297424   2 C  s               116     -2.067110  10 H  s         
    68     -1.866795   7 C  py               13     -1.848516   1 C  px        
    60     -1.743703   7 C  s                67     -1.736839   7 C  px        
    65      1.701754   7 C  py               25     -1.394527   2 C  px        
    76      0.995315   8 Cl s                98      0.965665   9 Cl s         
 
 Vector   78  Occ=0.000000D+00  E= 1.491401D+00
              MO Center=  1.2D+00,  2.5D-02, -3.4D-01, r^2= 3.3D+00
   Bfn.  Coefficient  Atom+Function         Bfn.  Coefficient  Atom+Function  
  ----- ------------  ---------------      ----- ------------  ---------------
    27      1.879931   2 C  pz               30     -1.492491   2 C  pz        
    54     -1.493469   6 H  s                14     -1.370010   1 C  py        
    21      1.176290   2 C  s                24     -0.979943   2 C  pz        
    64      0.952619   7 C  px                5     -0.871585   1 C  s         
    25     -0.866623   2 C  px               60      0.814913   7 C  s         
 
 Vector   79  Occ=0.000000D+00  E= 1.501237D+00
              MO Center=  9.0D-01, -3.7D-02, -4.5D-01, r^2= 3.5D+00
   Bfn.  Coefficient  Atom+Function         Bfn.  Coefficient  Atom+Function  
  ----- ------------  ---------------      ----- ------------  ---------------
    26      1.396240   2 C  py               15     -1.254424   1 C  pz        
    66     -1.234361   7 C  pz               33     -1.145198   3 H  s         
    25     -1.107371   2 C  px               29     -1.014604   2 C  py        
    28      1.003461   2 C  px               69      0.914043   7 C  pz        
    12      0.896657   1 C  pz               36      0.898097   4 H  s         
 
 Vector   80  Occ=0.000000D+00  E= 1.638546D+00
              MO Center=  1.1D+00, -9.0D-02, -4.8D-01, r^2= 3.0D+00
   Bfn.  Coefficient  Atom+Function         Bfn.  Coefficient  Atom+Function  
  ----- ------------  ---------------      ----- ------------  ---------------
    11      1.880641   1 C  py               36     -1.751294   4 H  s         
    29      1.587646   2 C  py               12      1.436927   1 C  pz        
    26     -1.388566   2 C  py               27     -1.317018   2 C  pz        
    14     -1.241324   1 C  py               30      1.186150   2 C  pz        
    15     -1.112542   1 C  pz               35      1.003365   4 H  s         
 
 Vector   81  Occ=0.000000D+00  E= 1.687701D+00
              MO Center=  6.0D-01, -5.0D-01, -4.5D-01, r^2= 2.7D+00
   Bfn.  Coefficient  Atom+Function         Bfn.  Coefficient  Atom+Function  
  ----- ------------  ---------------      ----- ------------  ---------------
    10      2.017850   1 C  px               11      1.070075   1 C  py        
    20     -0.969994   2 C  s                 7     -0.946859   1 C  px        
    65     -0.911621   7 C  py              115     -0.898323  10 H  s         
    59      0.885438   7 C  s                68      0.873734   7 C  py        
    13     -0.840027   1 C  px              116      0.808190  10 H  s         
 
 Vector   82  Occ=0.000000D+00  E= 2.014622D+00
              MO Center=  1.4D+00, -1.9D+00, -1.9D+00, r^2= 1.3D+00
   Bfn.  Coefficient  Atom+Function         Bfn.  Coefficient  Atom+Function  
  ----- ------------  ---------------      ----- ------------  ---------------
   118      2.300817  11 H  s               117     -1.295641  11 H  s         
   119     -1.085012  11 H  s                46     -0.641156   5 O  px        
    60     -0.616151   7 C  s                48      0.475615   5 O  pz        
    43      0.462877   5 O  px               42     -0.454362   5 O  s         
     5      0.435531   1 C  s                20     -0.378474   2 C  s         
 
 Vector   83  Occ=0.000000D+00  E= 2.086731D+00
              MO Center=  2.0D+00,  3.8D-01, -6.5D-01, r^2= 2.8D+00
   Bfn.  Coefficient  Atom+Function         Bfn.  Coefficient  Atom+Function  
  ----- ------------  ---------------      ----- ------------  ---------------
    20      2.620967   2 C  s                19     -2.052621   2 C  s         
    53     -1.448414   6 H  s                 5     -1.422536   1 C  s         
    32     -1.369117   3 H  s                35     -1.297056   4 H  s         
     4      1.004959   1 C  s                13     -0.808303   1 C  px        
    54      0.773462   6 H  s                52      0.730898   6 H  s         
 
 Vector   84  Occ=0.000000D+00  E= 2.159547D+00
              MO Center= -7.7D-01, -6.9D-01,  1.6D-01, r^2= 2.5D+00
   Bfn.  Coefficient  Atom+Function         Bfn.  Coefficient  Atom+Function  
  ----- ------------  ---------------      ----- ------------  ---------------
    59      3.041763   7 C  s                58     -2.312523   7 C  s         
    60     -1.935495   7 C  s               115     -1.728848  10 H  s         
   114      1.048440  10 H  s                 5     -0.871867   1 C  s         
   116      0.634142  10 H  s                68     -0.584381   7 C  py        
     4      0.557385   1 C  s                67     -0.470883   7 C  px        
 
 Vector   85  Occ=0.000000D+00  E= 2.229046D+00
              MO Center= -4.6D-01,  4.5D-01,  6.2D-01, r^2= 4.4D+00
   Bfn.  Coefficient  Atom+Function         Bfn.  Coefficient  Atom+Function  
  ----- ------------  ---------------      ----- ------------  ---------------
    88     -1.213596   8 Cl pz              110     -1.204739   9 Cl pz        
    85      1.140668   8 Cl pz              107      1.138372   9 Cl pz        
   108     -0.665526   9 Cl px              105      0.636366   9 Cl px        
    91      0.588449   8 Cl pz              113      0.520844   9 Cl pz        
   109      0.500434   9 Cl py              106     -0.467131   9 Cl py        
 
 Vector   86  Occ=0.000000D+00  E= 2.258661D+00
              MO Center=  9.5D-01,  2.7D-01,  2.3D-01, r^2= 5.6D+00
   Bfn.  Coefficient  Atom+Function         Bfn.  Coefficient  Atom+Function  
  ----- ------------  ---------------      ----- ------------  ---------------
    32      1.028057   3 H  s                53     -0.980167   6 H  s         
   108      0.816396   9 Cl px              105     -0.778103   9 Cl px        
   109      0.769565   9 Cl py               52      0.763125   6 H  s         
    86     -0.750505   8 Cl px               31     -0.727078   3 H  s         
   106     -0.714621   9 Cl py               33     -0.708932   3 H  s         
 
 Vector   87  Occ=0.000000D+00  E= 2.272850D+00
              MO Center=  5.4D-02,  3.8D-01,  9.1D-01, r^2= 4.3D+00
   Bfn.  Coefficient  Atom+Function         Bfn.  Coefficient  Atom+Function  
  ----- ------------  ---------------      ----- ------------  ---------------
   109     -1.378547   9 Cl py              106      1.289163   9 Cl py        
    60     -1.008753   7 C  s                35     -0.751083   4 H  s         
    87     -0.702638   8 Cl py               84      0.661855   8 Cl py        
     5     -0.623015   1 C  s               115      0.618462  10 H  s         
   110     -0.612134   9 Cl pz               32      0.577759   3 H  s         
 
 Vector   88  Occ=0.000000D+00  E= 2.288755D+00
              MO Center=  4.1D-01,  3.7D-01,  6.8D-01, r^2= 5.1D+00
   Bfn.  Coefficient  Atom+Function         Bfn.  Coefficient  Atom+Function  
  ----- ------------  ---------------      ----- ------------  ---------------
   108      1.192367   9 Cl px              105     -1.084064   9 Cl px        
    32     -1.009215   3 H  s                 6      0.858945   1 C  s         
     5     -0.729575   1 C  s                31      0.690408   3 H  s         
    87      0.689116   8 Cl py               35      0.663182   4 H  s         
    84     -0.633817   8 Cl py              110     -0.629588   9 Cl pz        
 
 Vector   89  Occ=0.000000D+00  E= 2.303699D+00
              MO Center= -4.9D-01,  7.4D-01, -4.3D-01, r^2= 4.2D+00
   Bfn.  Coefficient  Atom+Function         Bfn.  Coefficient  Atom+Function  
  ----- ------------  ---------------      ----- ------------  ---------------
    87     -1.459761   8 Cl py               84      1.346057   8 Cl py        
    60     -1.123894   7 C  s                59      1.027746   7 C  s         
    86     -0.896478   8 Cl px               32     -0.842614   3 H  s         
    83      0.817975   8 Cl px               58     -0.729271   7 C  s         
    35      0.650809   4 H  s                90      0.615625   8 Cl py        
 
 Vector   90  Occ=0.000000D+00  E= 2.313061D+00
              MO Center=  2.2D-01,  3.6D-01,  3.6D-01, r^2= 5.4D+00
   Bfn.  Coefficient  Atom+Function         Bfn.  Coefficient  Atom+Function  
  ----- ------------  ---------------      ----- ------------  ---------------
   109     -1.097285   9 Cl py              106      1.000519   9 Cl py        
    53     -0.886321   6 H  s                59      0.860257   7 C  s         
   108     -0.853488   9 Cl px              105      0.758217   9 Cl px        
     5      0.727682   1 C  s                 4     -0.697627   1 C  s         
    58     -0.699164   7 C  s                87      0.698231   8 Cl py        
 
 Vector   91  Occ=0.000000D+00  E= 2.324612D+00
              MO Center=  1.8D-03,  8.1D-01, -6.3D-01, r^2= 4.4D+00
   Bfn.  Coefficient  Atom+Function         Bfn.  Coefficient  Atom+Function  
  ----- ------------  ---------------      ----- ------------  ---------------
    86      1.088167   8 Cl px               88     -1.062419   8 Cl pz        
    83     -1.015903   8 Cl px               85      0.964131   8 Cl pz        
     5     -0.946303   1 C  s                35      0.932082   4 H  s         
    53     -0.839010   6 H  s                 4      0.798582   1 C  s         
     6      0.731354   1 C  s                34     -0.718998   4 H  s         
 
 Vector   92  Occ=0.000000D+00  E= 2.380870D+00
              MO Center= -1.4D-01,  3.9D-01,  1.5D-01, r^2= 4.4D+00
   Bfn.  Coefficient  Atom+Function         Bfn.  Coefficient  Atom+Function  
  ----- ------------  ---------------      ----- ------------  ---------------
     6      2.589878   1 C  s                 5     -2.352191   1 C  s         
     4      1.757209   1 C  s                20     -1.195370   2 C  s         
    88      1.028137   8 Cl pz               19      0.989836   2 C  s         
   108     -0.952906   9 Cl px               85     -0.913620   8 Cl pz        
   105      0.836988   9 Cl px              110     -0.821543   9 Cl pz        
 
 Vector   93  Occ=0.000000D+00  E= 2.480189D+00
              MO Center=  3.5D-01, -2.2D-01, -1.6D-01, r^2= 4.1D+00
   Bfn.  Coefficient  Atom+Function         Bfn.  Coefficient  Atom+Function  
  ----- ------------  ---------------      ----- ------------  ---------------
     5      3.565598   1 C  s                 6     -2.795471   1 C  s         
     4     -2.534738   1 C  s               110     -1.058959   9 Cl pz        
   107      0.898057   9 Cl pz               14     -0.867982   1 C  py        
    19     -0.808706   2 C  s                86      0.806667   8 Cl px        
    20      0.740565   2 C  s                48     -0.709877   5 O  pz        
 
 Vector   94  Occ=0.000000D+00  E= 2.494431D+00
              MO Center=  6.7D-01, -1.4D+00, -1.2D+00, r^2= 2.0D+00
   Bfn.  Coefficient  Atom+Function         Bfn.  Coefficient  Atom+Function  
  ----- ------------  ---------------      ----- ------------  ---------------
     5      1.246878   1 C  s                 6     -1.206079   1 C  s         
    47     -1.151514   5 O  py               48      1.080378   5 O  pz        
     4     -0.840729   1 C  s                20      0.770930   2 C  s         
    45     -0.763220   5 O  pz               14     -0.736402   1 C  py        
    44      0.731404   5 O  py               51     -0.728986   5 O  pz        
 
 Vector   95  Occ=0.000000D+00  E= 2.560959D+00
              MO Center=  4.3D-02, -1.2D+00, -5.5D-01, r^2= 3.0D+00
   Bfn.  Coefficient  Atom+Function         Bfn.  Coefficient  Atom+Function  
[...]
     4      1.597496   1 C  s                 3     -1.505461   1 C  s         
     5     -1.506239   1 C  s                56     -1.421702   7 C  s         
     6      1.396429   1 C  s                19      1.130329   2 C  s         
 
 Vector  104  Occ=0.000000D+00  E= 1.170796D+01
              MO Center=  1.5D+00,  1.2D-02, -6.2D-01, r^2= 8.4D-01
   Bfn.  Coefficient  Atom+Function         Bfn.  Coefficient  Atom+Function  
  ----- ------------  ---------------      ----- ------------  ---------------
    19     -2.784223   2 C  s                18      2.637518   2 C  s         
    20      2.595011   2 C  s                21     -2.589714   2 C  s         
     4      2.092344   1 C  s                 5     -1.982911   1 C  s         
     3     -1.970708   1 C  s                 6      1.856812   1 C  s         
    17     -1.377276   2 C  s                 2      1.028359   1 C  s         
 
 Vector  105  Occ=0.000000D+00  E= 2.188622D+01
              MO Center=  6.6D-01, -1.7D+00, -1.3D+00, r^2= 2.0D-01
   Bfn.  Coefficient  Atom+Function         Bfn.  Coefficient  Atom+Function  
  ----- ------------  ---------------      ----- ------------  ---------------
    39      3.323349   5 O  s                40     -3.222219   5 O  s         
    41      2.581991   5 O  s                38     -1.742094   5 O  s         
    42     -1.624080   5 O  s                 6      0.524265   1 C  s         
    14     -0.489650   1 C  py               15     -0.349044   1 C  pz        
    50     -0.245772   5 O  py               68      0.220315   7 C  py        
 
 Vector  106  Occ=0.000000D+00  E= 4.073864D+01
              MO Center= -3.2D-01,  3.0D-01,  1.4D+00, r^2= 1.6D+00
   Bfn.  Coefficient  Atom+Function         Bfn.  Coefficient  Atom+Function  
  ----- ------------  ---------------      ----- ------------  ---------------
   100      1.639058   9 Cl py              103     -1.464469   9 Cl py        
   101     -1.401122   9 Cl pz              104      1.251460   9 Cl pz        
    99     -1.032311   9 Cl px               79     -1.013126   8 Cl pz        
   102      0.922198   9 Cl px               82      0.905501   8 Cl pz        
   106     -0.494158   9 Cl py               77     -0.473342   8 Cl px        
 
 Vector  107  Occ=0.000000D+00  E= 4.074727D+01
              MO Center= -3.2D-01,  3.0D-01,  1.4D+00, r^2= 1.5D+00
   Bfn.  Coefficient  Atom+Function         Bfn.  Coefficient  Atom+Function  
  ----- ------------  ---------------      ----- ------------  ---------------
   100      2.036783   9 Cl py              103     -1.819112   9 Cl py        
    79      1.126990   8 Cl pz               82     -1.007038   8 Cl pz        
   101      0.972084   9 Cl pz              104     -0.867786   9 Cl pz        
    99      0.800761   9 Cl px              102     -0.715102   9 Cl px        
   106     -0.617682   9 Cl py               85     -0.339254   8 Cl pz        
 
 Vector  108  Occ=0.000000D+00  E= 4.075108D+01
              MO Center= -2.0D-01,  2.2D-01,  1.7D+00, r^2= 9.0D-01
   Bfn.  Coefficient  Atom+Function         Bfn.  Coefficient  Atom+Function  
  ----- ------------  ---------------      ----- ------------  ---------------
    99      2.189550   9 Cl px              102     -1.955516   9 Cl px        
   101     -1.263891   9 Cl pz              104      1.128608   9 Cl pz        
    77     -0.737502   8 Cl px              105     -0.664537   9 Cl px        
    80      0.658977   8 Cl px              107      0.384329   9 Cl pz        
   108      0.304036   9 Cl px               79     -0.268321   8 Cl pz        
 
 Vector  109  Occ=0.000000D+00  E= 4.076457D+01
              MO Center= -1.2D+00,  8.7D-01, -4.9D-01, r^2= 9.6D-01
   Bfn.  Coefficient  Atom+Function         Bfn.  Coefficient  Atom+Function  
  ----- ------------  ---------------      ----- ------------  ---------------
    78      2.297470   8 Cl py               81     -2.051961   8 Cl py        
   101     -0.773611   9 Cl pz               79      0.741133   8 Cl pz        
    77      0.708482   8 Cl px               84     -0.696679   8 Cl py        
   104      0.690324   9 Cl pz               82     -0.662145   8 Cl pz        
    80     -0.632936   8 Cl px              100     -0.344168   9 Cl py        
 
 Vector  110  Occ=0.000000D+00  E= 4.076874D+01
              MO Center= -1.3D+00,  8.8D-01, -5.2D-01, r^2= 8.7D-01
   Bfn.  Coefficient  Atom+Function         Bfn.  Coefficient  Atom+Function  
  ----- ------------  ---------------      ----- ------------  ---------------
    77      2.002597   8 Cl px               80     -1.788551   8 Cl px        
    79     -1.549844   8 Cl pz               82      1.384152   8 Cl pz        
    99      0.672162   9 Cl px               83     -0.607595   8 Cl px        
   102     -0.599938   9 Cl px               85      0.470404   8 Cl pz        
   101      0.314074   9 Cl pz              100      0.311167   9 Cl py        
 
 Vector  111  Occ=0.000000D+00  E= 4.079147D+01
              MO Center= -1.0D+00,  7.3D-01, -1.9D-02, r^2= 2.0D+00
   Bfn.  Coefficient  Atom+Function         Bfn.  Coefficient  Atom+Function  
  ----- ------------  ---------------      ----- ------------  ---------------
   101     -1.365255   9 Cl pz               77      1.327471   8 Cl px        
    79      1.318868   8 Cl pz               78     -1.268965   8 Cl py        
   104      1.217362   9 Cl pz               80     -1.184446   8 Cl px        
    82     -1.176642   8 Cl pz               81      1.132036   8 Cl py        
   107      0.424618   9 Cl pz               83     -0.408855   8 Cl px        
 
 Vector  112  Occ=0.000000D+00  E= 6.248469D+01
              MO Center=  4.5D-01, -3.1D-01, -2.6D-01, r^2= 1.2D+00
   Bfn.  Coefficient  Atom+Function         Bfn.  Coefficient  Atom+Function  
  ----- ------------  ---------------      ----- ------------  ---------------
    56      1.890054   7 C  s                 2      1.828007   1 C  s         
    57     -1.443630   7 C  s                 3     -1.392680   1 C  s         
    17      1.327091   2 C  s                55     -1.116850   7 C  s         
     1     -1.081616   1 C  s                18     -1.006946   2 C  s         
    58      0.969253   7 C  s                 4      0.915976   1 C  s         
 
 Vector  113  Occ=0.000000D+00  E= 6.259062D+01
              MO Center=  1.5D-01, -3.3D-01, -1.1D-01, r^2= 1.1D+00
   Bfn.  Coefficient  Atom+Function         Bfn.  Coefficient  Atom+Function  
  ----- ------------  ---------------      ----- ------------  ---------------
    56      2.270880   7 C  s                57     -1.742437   7 C  s         
     2     -1.540951   1 C  s                55     -1.338656   7 C  s         
    58      1.213434   7 C  s                 3      1.177725   1 C  s         
    60      1.155439   7 C  s                59     -1.111486   7 C  s         
    17     -1.097135   2 C  s                 1      0.909838   1 C  s         
 
 Vector  114  Occ=0.000000D+00  E= 6.265647D+01
              MO Center=  1.5D+00,  2.2D-02, -6.2D-01, r^2= 5.6D-01
   Bfn.  Coefficient  Atom+Function         Bfn.  Coefficient  Atom+Function  
  ----- ------------  ---------------      ----- ------------  ---------------
    17      2.395784   2 C  s                18     -1.832542   2 C  s         
     2     -1.730033   1 C  s                16     -1.413981   2 C  s         
     3      1.325264   1 C  s                19      1.255945   2 C  s         
    20     -1.106637   2 C  s                21      1.089516   2 C  s         
     1      1.019988   1 C  s                 4     -0.916585   1 C  s         
 
 Vector  115  Occ=0.000000D+00  E= 1.178263D+02
              MO Center=  6.7D-01, -1.7D+00, -1.3D+00, r^2= 4.5D-02
   Bfn.  Coefficient  Atom+Function         Bfn.  Coefficient  Atom+Function  
  ----- ------------  ---------------      ----- ------------  ---------------
    38      2.969927   5 O  s                39     -2.274339   5 O  s         
    37     -1.756159   5 O  s                40      1.437019   5 O  s         
    41     -1.087203   5 O  s                42      0.686567   5 O  s         
     6     -0.228279   1 C  s                14      0.207865   1 C  py        
    15      0.150653   1 C  pz               50      0.104695   5 O  py        
 
 Vector  116  Occ=0.000000D+00  E= 1.230394D+02
              MO Center= -6.6D-01,  5.1D-01,  7.1D-01, r^2= 2.4D+00
   Bfn.  Coefficient  Atom+Function         Bfn.  Coefficient  Atom+Function  
  ----- ------------  ---------------      ----- ------------  ---------------
    94      1.677115   9 Cl s                72     -1.520802   8 Cl s         
    95     -1.273506   9 Cl s                93     -1.191590   9 Cl s         
    73      1.153767   8 Cl s                71      1.080654   8 Cl s         
    96      0.859449   9 Cl s                74     -0.777157   8 Cl s         
    97     -0.390701   9 Cl s                75      0.348962   8 Cl s         
 
 Vector  117  Occ=0.000000D+00  E= 1.230783D+02
              MO Center= -7.9D-01,  5.9D-01,  4.5D-01, r^2= 2.4D+00
   Bfn.  Coefficient  Atom+Function         Bfn.  Coefficient  Atom+Function  
  ----- ------------  ---------------      ----- ------------  ---------------
    72      1.677335   8 Cl s                94      1.521594   9 Cl s         
    73     -1.275000   8 Cl s                71     -1.191597   8 Cl s         
    95     -1.157669   9 Cl s                93     -1.080833   9 Cl s         
    74      0.862672   8 Cl s                96      0.784793   9 Cl s         
    75     -0.404648   8 Cl s                97     -0.372257   9 Cl s         
 
 Vector  118  Occ=0.000000D+00  E= 8.995900D+02
              MO Center= -7.0D-01,  5.4D-01,  6.3D-01, r^2= 2.4D+00
   Bfn.  Coefficient  Atom+Function         Bfn.  Coefficient  Atom+Function  
  ----- ------------  ---------------      ----- ------------  ---------------
    93     -1.685872   9 Cl s                71      1.626439   8 Cl s         
    92      1.253832   9 Cl s                70     -1.209678   8 Cl s         
    94      0.947668   9 Cl s                72     -0.914151   8 Cl s         
    95     -0.504569   9 Cl s                73      0.486342   8 Cl s         
    96      0.325688   9 Cl s                74     -0.313404   8 Cl s         
 
 Vector  119  Occ=0.000000D+00  E= 8.996331D+02
              MO Center= -7.5D-01,  5.7D-01,  5.3D-01, r^2= 2.4D+00
   Bfn.  Coefficient  Atom+Function         Bfn.  Coefficient  Atom+Function  
  ----- ------------  ---------------      ----- ------------  ---------------
    71      1.685984   8 Cl s                93      1.626714   9 Cl s         
    70     -1.253850   8 Cl s                92     -1.209723   9 Cl s         
    72     -0.947879   8 Cl s                94     -0.914666   9 Cl s         
    73      0.505237   8 Cl s                95      0.487917   9 Cl s         
    74     -0.327017   8 Cl s                96     -0.316335   9 Cl s         
 

   alpha - beta orbital overlaps 
   ----------------------------- 


   alpha      1      2      3      4      5      6      7      8      9     10
    beta      1      2      3      4      5      6      7      8      9     10
 overlap   1.000  1.000  1.000  1.000  1.000  1.000  1.000  1.000  1.000  0.973


   alpha     11     12     13     14     15     16     17     18     19     20
    beta     11     12     13     14     15     16     17     18     19     20
 overlap   0.973  0.998  0.856  0.856  1.000  0.999  0.999  0.996  0.997  0.999


   alpha     21     22     23     24     25     26     27     28     29     30
    beta     21     22     23     24     25     26     27     28     29     30
 overlap   0.998  0.995  0.981  0.997  0.994  0.997  0.983  0.994  0.964  0.969


   alpha     31     32     33     34     35     36     37     38     39     40
    beta     31     32     33     34     35     36     37     38     39     40
 overlap   0.968  0.968  0.973  0.989  0.995  0.978  0.992  0.995  0.991  0.987


   alpha     41     42     43     44     45     46     47     48     49     50
    beta     41     42     43     44     45     46     47     48     49     50
 overlap   0.980  0.977  0.986  0.995  0.982  0.985  0.980  0.970  0.795  0.797


   alpha     51     52     53     54     55     56     57     58     59     60
    beta     51     52     53     54     55     56     57     58     59     60
 overlap   0.974  0.875  0.861  0.998  0.999  0.996  0.996  0.994  0.994  0.989


   alpha     61     62     63     64     65     66     67     68     69     70
    beta     61     62     63     64     65     66     67     68     69     70
 overlap   0.997  0.998  0.862  0.855  0.993  0.988  0.999  0.999  1.000  1.000


   alpha     71     72     73     74     75     76     77     78     79     80
    beta     71     72     73     74     75     76     77     78     79     80
 overlap   1.000  1.000  0.924  0.892  0.973  0.974  0.998  0.969  0.952  1.000


   alpha     81     82     83     84     85     86     87     88     89     90
    beta     81     82     83     84     85     86     87     88     89     90
 overlap   1.000  1.000  1.000  1.000  0.999  0.989  0.990  0.995  0.996  0.988


   alpha     91     92     93     94     95     96     97     98     99    100
    beta     91     92     93     94     95     96     97     98     99    100
 overlap   0.989  0.993  0.986  0.989  0.996  0.997  1.000  1.000  1.000  1.000


   alpha    101    102    103    104    105    106    107    108    109    110
    beta    101    102    103    104    105    106    107    108    109    110
 overlap   1.000  0.996  0.992  0.993  1.000  1.000  0.997  0.997  0.995  0.995


   alpha    111    112    113    114    115    116    117    118    119
    beta    111    112    113    114    115    116    117    118    119
 overlap   0.999  0.999  0.997  0.998  1.000  1.000  1.000  1.000  1.000

     --------------------------
     Expectation value of S2:  
     --------------------------
      <S2> =      0.7527 (Exact =     0.7500)
 

 center of mass
 --------------
 x =  -0.12163560 y =   0.03735724 z =   0.06839458

 moments of inertia (a.u.)
 ------------------
        1020.128992211705         206.531155711998          33.334122225182
         206.531155711998        1196.054741480266         -78.062537902273
          33.334122225182         -78.062537902273         839.646952440479
 
     Multipole analysis of the density
     ---------------------------------
 
     L   x y z        total         alpha         beta         nuclear
     -   - - -        -----         -----         ----         -------
     0   0 0 0     -0.000000    -33.000000    -32.000000     65.000000
 
     1   1 0 0      1.197091      0.110556      1.086535      0.000000
     1   0 1 0     -0.642145      0.139197     -0.781342      0.000000
     1   0 0 1     -0.669830      0.224123     -0.893953     -0.000000
 
     2   2 0 0    -34.861298   -161.763832   -157.036486    283.939021
     2   1 1 0     -0.280445     50.212374     47.811730    -98.304549
     2   1 0 1     -3.929312     14.070749     13.345270    -31.345332
     2   0 2 0    -37.556097   -109.219993   -105.264395    176.928292
     2   0 1 1      1.567667    -21.870294    -20.523341     43.961301
     2   0 0 2    -36.855342   -194.530415   -190.736791    348.411863
 

 Task  times  cpu:        5.7s     wall:        6.1s
 
 
                                NWChem Input Module
                                -------------------
 
 
 Summary of allocated global arrays
-----------------------------------
  No active global arrays



                         GA Statistics for process    0
                         ------------------------------

       create   destroy   get      put      acc     scatter   gather  read&inc
calls:  348      348     2.11e+04 2939     1.71e+04    0        0      418     
number of processes/call 1.79e+01 5.90e+01 1.25e+01 0.00e+00 0.00e+00
bytes total:             8.91e+07 1.10e+07 4.84e+07 0.00e+00 0.00e+00 3.34e+03
bytes remote:            7.77e+07 7.07e+06 4.37e+07 0.00e+00 0.00e+00 0.00e+00
Max memory consumed for GA by this process: 705664 bytes
 
 
 
                                     CITATION
                                     --------
                Please cite the following reference when publishing
                           results obtained with NWChem:
 
          E. Apr, E. J. Bylaska, W. A. de Jong, N. Govind, K. Kowalski,
       T. P. Straatsma, M. Valiev, H. J. J. van Dam, Y. Alexeev, J. Anchell,
       V. Anisimov, F. W. Aquino, R. Atta-Fynn, J. Autschbach, N. P. Bauman,
     J. C. Becca, D. E. Bernholdt, K. Bhaskaran-Nair, S. Bogatko, P. Borowski,
        J. Boschen, J. Brabec, A. Bruner, E. Caut, Y. Chen, G. N. Chuev,
      C. J. Cramer, J. Daily, M. J. O. Deegan, T. H. Dunning Jr., M. Dupuis,
   K. G. Dyall, G. I. Fann, S. A. Fischer, A. Fonari, H. Frchtl, L. Gagliardi,
      J. Garza, N. Gawande, S. Ghosh, K. Glaesemann, A. W. Gtz, J. Hammond,
       V. Helms, E. D. Hermes, K. Hirao, S. Hirata, M. Jacquelin, L. Jensen,
   B. G. Johnson, H. Jnsson, R. A. Kendall, M. Klemm, R. Kobayashi, V. Konkov,
      S. Krishnamoorthy, M. Krishnan, Z. Lin, R. D. Lins, R. J. Littlefield,
      A. J. Logsdail, K. Lopata, W. Ma, A. V. Marenich, J. Martin del Campo,
   D. Mejia-Rodriguez, J. E. Moore, J. M. Mullin, T. Nakajima, D. R. Nascimento,
    J. A. Nichols, P. J. Nichols, J. Nieplocha, A. Otero-de-la-Roza, B. Palmer,
    A. Panyala, T. Pirojsirikul, B. Peng, R. Peverati, J. Pittner, L. Pollack,
   R. M. Richard, P. Sadayappan, G. C. Schatz, W. A. Shelton, D. W. Silverstein,
   D. M. A. Smith, T. A. Soares, D. Song, M. Swart, H. L. Taylor, G. S. Thomas,
            V. Tipparaju, D. G. Truhlar, K. Tsemekhman, T. Van Voorhis,
     . Vzquez-Mayagoitia, P. Verma, O. Villa, A. Vishnu, K. D. Vogiatzis,
        D. Wang, J. H. Weare, M. J. Williamson, T. L. Windus, K. Woliski,
        A. T. Wong, Q. Wu, C. Yang, Q. Yu, M. Zacharias, Z. Zhang, Y. Zhao,
                                and R. J. Harrison
                        "NWChem: Past, present, and future
                         J. Chem. Phys. 152, 184102 (2020)
                               doi:10.1063/5.0004997
 
                                      AUTHORS
                                      -------
     E. Apra, E. J. Bylaska, N. Govind, K. Kowalski, M. Valiev, W. A. de Jong,
      T. P. Straatsma, H. J. J. van Dam, D. Wang, T. L. Windus, N. P. Bauman,
       A. Panyala, J. Hammond, J. Autschbach, K. Bhaskaran-Nair, J. Brabec,
    K. Lopata, S. A. Fischer, S. Krishnamoorthy, M. Jacquelin, W. Ma, M. Klemm,
       O. Villa, Y. Chen, V. Anisimov, F. Aquino, S. Hirata, M. T. Hackler,
           Eric Hermes, L. Jensen, J. E. Moore, J. C. Becca, V. Konjkov,
            D. Mejia-Rodriguez, T. Risthaus, M. Malagoli, A. Marenich,
   A. Otero-de-la-Roza, J. Mullin, P. Nichols, R. Peverati, J. Pittner, Y. Zhao,
        P.-D. Fan, A. Fonari, M. J. Williamson, R. J. Harrison, J. R. Rehr,
      M. Dupuis, D. Silverstein, D. M. A. Smith, J. Nieplocha, V. Tipparaju,
      M. Krishnan, B. E. Van Kuiken, A. Vazquez-Mayagoitia, M. Swart, Q. Wu,
   T. Van Voorhis, A. A. Auer, M. Nooijen, L. D. Crosby, E. Brown, G. Cisneros,
     G. I. Fann, H. Fruchtl, J. Garza, K. Hirao, R. A. Kendall, J. A. Nichols,
       K. Tsemekhman, K. Wolinski, J. Anchell, D. E. Bernholdt, P. Borowski,
       T. Clark, D. Clerc, H. Dachsel, M. J. O. Deegan, K. Dyall, D. Elwood,
      E. Glendening, M. Gutowski, A. C. Hess, J. Jaffe, B. G. Johnson, J. Ju,
        R. Kobayashi, R. Kutteh, Z. Lin, R. Littlefield, X. Long, B. Meng,
      T. Nakajima, S. Niu, L. Pollack, M. Rosing, K. Glaesemann, G. Sandrone,
      M. Stave, H. Taylor, G. Thomas, J. H. van Lenthe, A. T. Wong, Z. Zhang.

 Total times  cpu:        5.7s     wall:        6.2s
