 
             Northwest Computational Chemistry Package (NWChem) 7.0.0
             --------------------------------------------------------
 
 
                    Environmental Molecular Sciences Laboratory
                       Pacific Northwest National Laboratory
                                Richland, WA 99352
 
                              Copyright (c) 1994-2020
                       Pacific Northwest National Laboratory
                            Battelle Memorial Institute
 
             NWChem is an open-source computational chemistry package
                        distributed under the terms of the
                      Educational Community License (ECL) 2.0
             A copy of the license is included with this distribution
                              in the LICENSE.TXT file
 
                                  ACKNOWLEDGMENT
                                  --------------

            This software and its documentation were developed at the
            EMSL at Pacific Northwest National Laboratory, a multiprogram
            national laboratory, operated for the U.S. Department of Energy
            by Battelle under Contract Number DE-AC05-76RL01830. Support
            for this work was provided by the Department of Energy Office
            of Biological and Environmental Research, Office of Basic
            Energy Sciences, and the Office of Advanced Scientific Computing.


                                NWChem Input Module
                                -------------------
 
 
 Summary of "ao basis" -> "" (spherical)
 ------------------------------------------------------------------------------
       Tag                 Description            Shells   Functions and Types
 ---------------- ------------------------------  ------  ---------------------
 *                        ahlrichs_vtz                on all atoms 



 Scaling coordinates for geometry "geometry" by  1.889725989
 (inverse scale =  0.529177249)

 
 
                             Geometry "geometry" -> ""
                             -------------------------
 
 Output coordinates in angstroms (scale by  1.889725989 to convert to a.u.)
 
  No.       Tag          Charge          X              Y              Z
 ---- ---------------- ---------- -------------- -------------- --------------
    1 C                    6.0000    -1.14347450     0.49906817     0.94902169
    2 C                    6.0000     0.02912880     0.06129181     0.13478693
    3 C                    6.0000     1.35978801    -0.07852520     0.75767517
    4 O                    8.0000    -0.08938703    -0.20066945    -1.12777733
    5 Cl                  17.0000    -2.64264148     0.76118068    -0.10941136
    6 H                    1.0000    -0.92905273     1.43480338     1.48402615
    7 H                    1.0000    -1.39350414    -0.27496750     1.69167939
    8 Cl                  17.0000     2.61793278    -0.92226792    -0.26862766
    9 H                    1.0000     1.27651558    -0.60046447     1.72335449
   10 H                    1.0000     1.73871347     0.93725603     0.98112606
   11 H                    1.0000    -1.03018208    -0.04379731    -1.48020675
 
      Atomic Mass 
      ----------- 
 
      C                 12.000000
      O                 15.994910
      Cl                34.968850
      H                  1.007825
 

 Effective nuclear repulsion energy (a.u.)     340.2126219772

            Nuclear Dipole moment (a.u.) 
            ----------------------------
        X                 Y               Z
 ---------------- ---------------- ----------------
     0.0000000000    -0.0000000000     0.0000000000
 
 
            XYZ format geometry
            -------------------
    11
 geometry
 C                    -1.14347450     0.49906817     0.94902169
 C                     0.02912880     0.06129181     0.13478693
 C                     1.35978801    -0.07852520     0.75767517
 O                    -0.08938703    -0.20066945    -1.12777733
 Cl                   -2.64264148     0.76118068    -0.10941136
 H                    -0.92905273     1.43480338     1.48402615
 H                    -1.39350414    -0.27496750     1.69167939
 Cl                    2.61793278    -0.92226792    -0.26862766
 H                     1.27651558    -0.60046447     1.72335449
 H                     1.73871347     0.93725603     0.98112606
 H                    -1.03018208    -0.04379731    -1.48020675
 
 ==============================================================================
                                internuclear distances
 ------------------------------------------------------------------------------
       center one      |      center two      | atomic units |  angstroms
 ------------------------------------------------------------------------------
    2 C                |   1 C                |     2.82173  |     1.49319
    3 C                |   2 C                |     2.78899  |     1.47587
    4 O                |   2 C                |     2.44699  |     1.29489
    5 Cl               |   1 C                |     3.50313  |     1.85378
    6 H                |   1 C                |     2.07681  |     1.09900
    7 H                |   1 C                |     2.08143  |     1.10145
    8 Cl               |   3 C                |     3.45780  |     1.82979
    9 H                |   3 C                |     2.08032  |     1.10086
   10 H                |   3 C                |     2.09182  |     1.10694
   11 H                |   4 O                |     1.92150  |     1.01681
 ------------------------------------------------------------------------------
                         number of included internuclear distances:         10
 ==============================================================================



 ==============================================================================
                                 internuclear angles
 ------------------------------------------------------------------------------
        center 1       |       center 2       |       center 3       |  degrees
 ------------------------------------------------------------------------------
    2 C                |   1 C                |   5 Cl               |   111.42
    2 C                |   1 C                |   6 H                |   111.21
    2 C                |   1 C                |   7 H                |   109.87
    5 Cl               |   1 C                |   6 H                |   108.38
    5 Cl               |   1 C                |   7 H                |   107.50
    6 H                |   1 C                |   7 H                |   108.32
    1 C                |   2 C                |   3 C                |   120.38
    1 C                |   2 C                |   4 O                |   121.27
    3 C                |   2 C                |   4 O                |   118.35
    2 C                |   3 C                |   8 Cl               |   115.27
    2 C                |   3 C                |   9 H                |   110.30
    2 C                |   3 C                |  10 H                |   107.87
    8 Cl               |   3 C                |   9 H                |   108.99
    8 Cl               |   3 C                |  10 H                |   107.52
    9 H                |   3 C                |  10 H                |   106.49
    2 C                |   4 O                |  11 H                |   113.04
 ------------------------------------------------------------------------------
                            number of included internuclear angles:         16
 ==============================================================================



                              Aldehyde and Ketone set
                              -----------------------
 
                                 NWChem DFT Module
                                 -----------------
 
 
                              Aldehyde and Ketone set
 
 
                      Basis "ao basis" -> "ao basis" (spherical)
                      -----
  C (Carbon)
  ----------
            Exponent  Coefficients 
       -------------- ---------------------------------------------------------
  1 S  8.50603840E+03  0.000534
  1 S  1.27573290E+03  0.004125
  1 S  2.90311870E+02  0.021171
  1 S  8.20562000E+01  0.082418
  1 S  2.64796410E+01  0.240129
 
  2 S  9.24145850E+00  1.000000
 
  3 S  3.36435300E+00  1.000000
 
  4 S  8.71741640E-01  1.000000
 
  5 S  3.63523520E-01  1.000000
 
  6 S  1.28731350E-01  1.000000
 
  7 P  3.47094960E+01  0.005330
  7 P  7.95908830E+00  0.035866
  7 P  2.37869720E+00  0.142003
  7 P  8.15400650E-01  0.342031
 
  8 P  2.89537850E-01  1.000000
 
  9 P  1.00847540E-01  1.000000
 
  O (Oxygen)
  ----------
            Exponent  Coefficients 
       -------------- ---------------------------------------------------------
  1 S  1.59026475E+04  0.000515
  1 S  2.38495378E+03  0.003982
  1 S  5.42719572E+02  0.020477
  1 S  1.53404079E+02  0.080262
  1 S  4.95457161E+01  0.237668
 
  2 S  1.73396499E+01  1.000000
 
  3 S  6.33033553E+00  1.000000
 
  4 S  1.69958822E+00  1.000000
 
  5 S  6.89544913E-01  1.000000
 
  6 S  2.39360282E-01  1.000000
 
  7 P  6.32705240E+01  0.006071
  7 P  1.46233123E+01  0.041948
  7 P  4.44895180E+00  0.161569
  7 P  1.52815132E+00  0.356828
 
  8 P  5.29973159E-01  1.000000
 
  9 P  1.75094460E-01  1.000000
 
  Cl (Chlorine)
  -------------
            Exponent  Coefficients 
       -------------- ---------------------------------------------------------
  1 S  1.17805790E+05  0.000242
  1 S  1.76602650E+04  0.001874
  1 S  4.01859730E+03  0.009736
  1 S  1.13622310E+03  0.039495
  1 S  3.68120620E+02  0.127972
 
  2 S  1.30861540E+02  1.000000
 
  3 S  5.04790110E+01  0.428741
  3 S  2.09168050E+01  0.196685
 
  4 S  6.35313880E+00  1.000000
 
  5 S  2.49480140E+00  1.000000
 
  6 S  5.43359480E-01  1.000000
 
  7 S  1.94343660E-01  1.000000
 
  8 P  6.81068790E+02  0.002366
  8 P  1.61113590E+02  0.018941
  8 P  5.13866370E+01  0.087845
  8 P  1.89585120E+01  0.257074
  8 P  3.00351580E+00  0.371524
 
  9 P  7.45652930E+00  1.000000
 
 10 P  1.06093610E+00  1.000000
 
 11 P  3.94520230E-01  1.000000
 
 12 P  1.33232790E-01  1.000000
 
  H (Hydrogen)
  ------------
            Exponent  Coefficients 
       -------------- ---------------------------------------------------------
  1 S  3.40613410E+01  0.006025
  1 S  5.12357460E+00  0.045021
  1 S  1.16466260E+00  0.201897
 
  2 S  3.27230410E-01  1.000000
 
  3 S  1.03072410E-01  1.000000
 


 Summary of "ao basis" -> "ao basis" (spherical)
 ------------------------------------------------------------------------------
       Tag                 Description            Shells   Functions and Types
 ---------------- ------------------------------  ------  ---------------------
 C                        ahlrichs vtz               9       15   6s3p
 O                        ahlrichs vtz               9       15   6s3p
 Cl                       ahlrichs vtz              12       22   7s5p
 H                        ahlrichs vtz               3        3   3s




 Summary of "ao basis" -> "ao basis" (spherical)
 ------------------------------------------------------------------------------
       Tag                 Description            Shells   Functions and Types
 ---------------- ------------------------------  ------  ---------------------
 C                        ahlrichs vtz               9       15   6s3p
 O                        ahlrichs vtz               9       15   6s3p
 Cl                       ahlrichs vtz              12       22   7s5p
 H                        ahlrichs vtz               3        3   3s


  Caching 1-el integrals 
 
            General Information
            -------------------
          SCF calculation type: DFT
          Wavefunction type:  spin polarized.
          No. of atoms     :    11
          No. of electrons :    65
           Alpha electrons :    33
            Beta electrons :    32
          Charge           :     0
          Spin multiplicity:     2
          Use of symmetry is: off; symmetry adaption is: off
          Maximum number of iterations: ***
          This is a Direct SCF calculation.
          AO basis - number of functions:   119
                     number of shells:    75
          Convergence on energy requested:  1.00D-08
          Convergence on density requested:  1.00D-07
          Convergence on gradient requested:  1.00D-06
 
              XC Information
              --------------
                        PBE96 Method XC Functional
          PerdewBurkeErnzerhof Exchange Functional  1.000          
            Perdew 1991 LDA Correlation Functional  1.000 local    
           PerdewBurkeErnz. Correlation Functional  1.000 non-local
 
             Grid Information
             ----------------
          Grid used for XC integration:  fine      
          Radial quadrature: Mura-Knowles        
          Angular quadrature: Lebedev. 
          Tag              B.-S. Rad. Rad. Pts. Rad. Cut. Ang. Pts.
          ---              ---------- --------- --------- ---------
          C                   0.70       70          11.0       590
          O                   0.60       70          10.0       590
          Cl                  1.00      123          13.0       770
          H                   0.35       60          12.0       590
          Grid pruning is: on 
          Number of quadrature shells:   826
          Spatial weights used:  Erf1
 
          Convergence Information
          -----------------------
          Convergence aids based upon iterative change in 
          total energy or number of iterations. 
          Levelshifting, if invoked, occurs when the 
          HOMO/LUMO gap drops below (HL_TOL):  1.00D-02
          DIIS, if invoked, will attempt to extrapolate 
          using up to (NFOCK): 10 stored Fock matrices.

                    Damping( 0%)  Levelshifting(0.5)       DIIS
                  --------------- ------------------- ---------------
          dE  on:    start            ASAP                start   
          dE off:    2 iters        *** iters           *** iters 

 
      Screening Tolerance Information
      -------------------------------
          Density screening/tol_rho:  1.00D-12
          AO Gaussian exp screening on grid/accAOfunc:  18
          CD Gaussian exp screening on grid/accCDfunc:  20
          XC Gaussian exp screening on grid/accXCfunc:  20
          Schwarz screening/accCoul:  1.00D-12

      Dispersion Parameters
      ---------------------

           DFT-D3BJ Model   
          s6 scale factor  :        1.000000000000
          s8 scale factor  :        0.787500000000
          a1 parameter     :        0.428900000000
          a2 parameter     :        4.440700000000
              vdW contrib  :       -0.010026732403


 Forcing the number of linearly dependent vectors to be  0
 
      Superposition of Atomic Density Guess
      -------------------------------------
 
 Sum of atomic energies:       -1109.25882515
   Time after variat. SCF:      0.2
   Time prior to 1st pass:      0.2

 Grid_pts file          = ./07_ClCH2COHCH2Cl.gridpts.00
 Record size in doubles =  12289        No. of grid_pts per rec  =   3070
 Max. records in memory =     17        Max. recs in file   =  67550051


           Memory utilization after 1st SCF pass: 
           Heap Space remaining (MW):        0.00                 468
          Stack Space remaining (MW):      288.36           288356940

   convergence    iter        energy       DeltaE   RMS-Dens  Diis-err    time
 ---------------- ----- ----------------- --------- --------- ---------  ------
 d= 0,ls=0.0,diis     1  -1113.2090847595 -1.45D+03  1.28D-02  1.50D+01     0.6
                                                     1.16D-02  1.41D+01
 d= 0,ls=0.0,diis     2  -1112.1910164776  1.02D+00  3.46D-02  2.18D-01     1.0
                                                     9.51D-03  2.13D-01
 d= 0,ls=0.0,diis     3  -1111.7441296510  4.47D-01  3.41D-02  9.49D-01     1.5
                                                     7.55D-03  9.73D-01
 d= 0,ls=0.0,diis     4  -1112.2509258751 -5.07D-01  1.69D-03  7.61D-02     1.9
                                                     1.58D-03  8.37D-02
 d= 0,ls=0.0,diis     5  -1112.2876965305 -3.68D-02  1.20D-03  5.41D-03     2.4
                                                     1.05D-03  5.47D-03
 d= 0,ls=0.0,diis     6  -1112.2893691863 -1.67D-03  4.46D-04  4.00D-03     2.8
                                                     4.26D-04  4.48D-03
 d= 0,ls=0.0,diis     7  -1112.2912648768 -1.90D-03  9.63D-05  9.93D-05     3.3
                                                     9.54D-05  1.28D-04
 d= 0,ls=0.0,diis     8  -1112.2913049870 -4.01D-05  5.73D-05  3.40D-05     3.7
                                                     2.95D-05  2.65D-05
 d= 0,ls=0.0,diis     9  -1112.2913182726 -1.33D-05  1.57D-05  1.34D-06     4.2
                                                     1.39D-05  1.58D-06
 d= 0,ls=0.0,diis    10  -1112.2913190460 -7.73D-07  5.94D-06  5.32D-07     4.6
                                                     5.21D-06  5.21D-07
 d= 0,ls=0.0,diis    11  -1112.2913193182 -2.72D-07  2.79D-06  7.01D-08     5.1
                                                     2.33D-06  6.96D-08
 d= 0,ls=0.0,diis    12  -1112.2913193570 -3.87D-08  1.02D-06  2.72D-09     5.5
                                                     7.59D-07  2.90D-09
 d= 0,ls=0.0,diis    13  -1112.2913193592 -2.29D-09  1.93D-07  1.54D-10     6.0
                                                     1.70D-07  2.34D-10
 d= 0,ls=0.0,diis    14  -1112.2913193593 -1.05D-10  7.22D-08  3.41D-11     6.4
                                                     5.13D-08  3.04D-11


         Total DFT energy =    -1112.291319359344
      One electron energy =    -2207.575650095385
           Coulomb energy =      837.634369336587
          Exchange energy =      -80.196139420030
       Correlation energy =       -2.356494425292
 Nuclear repulsion energy =      340.212621977179

    Dispersion correction =       -0.010026732403

 Numeric. integr. density =       64.999999720989

     Total iterative time =      6.2s


 
                    DFT Final Alpha Molecular Orbital Analysis
                    ------------------------------------------
 
 Vector    1  Occ=1.000000D+00  E=-1.007029D+02
              MO Center= -2.6D+00,  7.6D-01, -1.1D-01, r^2= 3.1D-03
   Bfn.  Coefficient  Atom+Function         Bfn.  Coefficient  Atom+Function  
  ----- ------------  ---------------      ----- ------------  ---------------
    63      0.598197   5 Cl s                62      0.326070   5 Cl s         
    61      0.184384   5 Cl s         
 
 Vector    2  Occ=1.000000D+00  E=-1.006672D+02
              MO Center=  2.6D+00, -9.2D-01, -2.7D-01, r^2= 3.1D-03
   Bfn.  Coefficient  Atom+Function         Bfn.  Coefficient  Atom+Function  
  ----- ------------  ---------------      ----- ------------  ---------------
    91      0.598197   8 Cl s                90      0.326070   8 Cl s         
    89      0.184384   8 Cl s         
 
 Vector    3  Occ=1.000000D+00  E=-1.880530D+01
              MO Center= -9.0D-02, -2.0D-01, -1.1D+00, r^2= 1.5D-02
   Bfn.  Coefficient  Atom+Function         Bfn.  Coefficient  Atom+Function  
  ----- ------------  ---------------      ----- ------------  ---------------
    47      0.424527   4 O  s                48      0.366246   4 O  s         
    46      0.299494   4 O  s                49      0.055602   4 O  s         
 
 Vector    4  Occ=1.000000D+00  E=-9.988262D+00
              MO Center= -1.1D+00,  5.0D-01,  9.5D-01, r^2= 2.8D-02
   Bfn.  Coefficient  Atom+Function         Bfn.  Coefficient  Atom+Function  
  ----- ------------  ---------------      ----- ------------  ---------------
     2      0.424368   1 C  s                 3      0.359478   1 C  s         
     1      0.308863   1 C  s                 4      0.057225   1 C  s         
 
 Vector    5  Occ=1.000000D+00  E=-9.970518D+00
              MO Center=  1.4D+00, -7.9D-02,  7.6D-01, r^2= 2.8D-02
   Bfn.  Coefficient  Atom+Function         Bfn.  Coefficient  Atom+Function  
  ----- ------------  ---------------      ----- ------------  ---------------
    32      0.424349   3 C  s                33      0.359428   3 C  s         
    31      0.308851   3 C  s                34      0.057340   3 C  s         
 
 Vector    6  Occ=1.000000D+00  E=-9.961032D+00
              MO Center=  2.9D-02,  6.1D-02,  1.3D-01, r^2= 2.8D-02
   Bfn.  Coefficient  Atom+Function         Bfn.  Coefficient  Atom+Function  
  ----- ------------  ---------------      ----- ------------  ---------------
    17      0.423906   2 C  s                18      0.359539   2 C  s         
    16      0.308684   2 C  s                19      0.058521   2 C  s         
 
 Vector    7  Occ=1.000000D+00  E=-9.207899D+00
              MO Center= -2.6D+00,  7.6D-01, -1.1D-01, r^2= 6.6D-02
   Bfn.  Coefficient  Atom+Function         Bfn.  Coefficient  Atom+Function  
  ----- ------------  ---------------      ----- ------------  ---------------
    65      0.583484   5 Cl s                64      0.522935   5 Cl s         
    63     -0.293191   5 Cl s                62     -0.113714   5 Cl s         
    66      0.059594   5 Cl s                61     -0.054082   5 Cl s         
    67     -0.026160   5 Cl s         
 
 Vector    8  Occ=1.000000D+00  E=-9.172318D+00
              MO Center=  2.6D+00, -9.2D-01, -2.7D-01, r^2= 6.6D-02
   Bfn.  Coefficient  Atom+Function         Bfn.  Coefficient  Atom+Function  
  ----- ------------  ---------------      ----- ------------  ---------------
    93      0.583443   8 Cl s                92      0.522941   8 Cl s         
    91     -0.293191   8 Cl s                90     -0.113712   8 Cl s         
    94      0.059745   8 Cl s                89     -0.054082   8 Cl s         
    95     -0.026730   8 Cl s         
 
 Vector    9  Occ=1.000000D+00  E=-7.034712D+00
              MO Center= -2.6D+00,  7.6D-01, -1.1D-01, r^2= 5.8D-02
   Bfn.  Coefficient  Atom+Function         Bfn.  Coefficient  Atom+Function  
  ----- ------------  ---------------      ----- ------------  ---------------
    68      0.456071   5 Cl px               71      0.344470   5 Cl px        
    70      0.323039   5 Cl pz               73      0.243992   5 Cl pz        
    69     -0.078091   5 Cl py               72     -0.058982   5 Cl py        
    74      0.058004   5 Cl px               76      0.041095   5 Cl pz        
 
 Vector   10  Occ=1.000000D+00  E=-7.022205D+00
              MO Center= -2.6D+00,  7.6D-01, -1.1D-01, r^2= 5.8D-02
   Bfn.  Coefficient  Atom+Function         Bfn.  Coefficient  Atom+Function  
  ----- ------------  ---------------      ----- ------------  ---------------
    70      0.449264   5 Cl pz               73      0.339195   5 Cl pz        
    68     -0.286077   5 Cl px               71     -0.215987   5 Cl px        
    69      0.187630   5 Cl py               72      0.141661   5 Cl py        
    76      0.056295   5 Cl pz               74     -0.035832   5 Cl px        
 
 Vector   11  Occ=1.000000D+00  E=-7.020724D+00
              MO Center= -2.6D+00,  7.6D-01, -1.1D-01, r^2= 5.8D-02
   Bfn.  Coefficient  Atom+Function         Bfn.  Coefficient  Atom+Function  
  ----- ------------  ---------------      ----- ------------  ---------------
    69      0.526902   5 Cl py               72      0.397790   5 Cl py        
    68      0.169594   5 Cl px               71      0.128037   5 Cl px        
    70     -0.112062   5 Cl pz               73     -0.084603   5 Cl pz        
    75      0.065827   5 Cl py        
 
 Vector   12  Occ=1.000000D+00  E=-7.000040D+00
              MO Center=  2.6D+00, -9.2D-01, -2.7D-01, r^2= 5.8D-02
   Bfn.  Coefficient  Atom+Function         Bfn.  Coefficient  Atom+Function  
  ----- ------------  ---------------      ----- ------------  ---------------
    96      0.395944   8 Cl px               98     -0.308574   8 Cl pz        
    99      0.299064   8 Cl px               97     -0.257735   8 Cl py        
   101     -0.233072   8 Cl pz              100     -0.194670   8 Cl py        
   102      0.050422   8 Cl px              104     -0.039301   8 Cl pz        
   103     -0.032824   8 Cl py        
 
 Vector   13  Occ=1.000000D+00  E=-6.985425D+00
              MO Center=  2.6D+00, -9.2D-01, -2.7D-01, r^2= 5.8D-02
   Bfn.  Coefficient  Atom+Function         Bfn.  Coefficient  Atom+Function  
  ----- ------------  ---------------      ----- ------------  ---------------
    97      0.461400   8 Cl py              100      0.348342   8 Cl py        
    96      0.324194   8 Cl px               99      0.244758   8 Cl px        
   103      0.057685   8 Cl py              102      0.040536   8 Cl px        
    98      0.030602   8 Cl pz        
 
 Vector   14  Occ=1.000000D+00  E=-6.985362D+00
              MO Center=  2.6D+00, -9.2D-01, -2.7D-01, r^2= 5.8D-02
   Bfn.  Coefficient  Atom+Function         Bfn.  Coefficient  Atom+Function  
  ----- ------------  ---------------      ----- ------------  ---------------
    98      0.471824   8 Cl pz              101      0.356213   8 Cl pz        
    96      0.238338   8 Cl px               97     -0.198760   8 Cl py        
    99      0.179939   8 Cl px              100     -0.150057   8 Cl py        
   104      0.058999   8 Cl pz              102      0.029810   8 Cl px        
 
 Vector   15  Occ=1.000000D+00  E=-1.023356D+00
              MO Center= -1.9D-01, -1.1D-01, -8.5D-01, r^2= 6.1D-01
   Bfn.  Coefficient  Atom+Function         Bfn.  Coefficient  Atom+Function  
  ----- ------------  ---------------      ----- ------------  ---------------
    50      0.502240   4 O  s                51      0.255497   4 O  s         
    20      0.192063   2 C  s                48     -0.139679   4 O  s         
    47     -0.115987   4 O  s                49      0.111671   4 O  s         
    24     -0.104990   2 C  pz               54      0.086714   4 O  pz        
    57      0.079982   4 O  pz              117      0.071722  11 H  s         
 
 Vector   16  Occ=1.000000D+00  E=-8.125248D-01
              MO Center= -2.0D+00,  6.2D-01,  2.3D-01, r^2= 1.6D+00
   Bfn.  Coefficient  Atom+Function         Bfn.  Coefficient  Atom+Function  
  ----- ------------  ---------------      ----- ------------  ---------------
    66      0.495855   5 Cl s                67      0.403259   5 Cl s         
    65     -0.306774   5 Cl s                 5      0.293120   1 C  s         
    64     -0.187392   5 Cl s                50     -0.108757   4 O  s         
     6      0.099157   1 C  s                77      0.083947   5 Cl px        
    63      0.077666   5 Cl s                 3     -0.073916   1 C  s         
 
 Vector   17  Occ=1.000000D+00  E=-7.891404D-01
              MO Center=  1.8D+00, -4.7D-01,  1.5D-01, r^2= 2.2D+00
   Bfn.  Coefficient  Atom+Function         Bfn.  Coefficient  Atom+Function  
  ----- ------------  ---------------      ----- ------------  ---------------
    94      0.453756   8 Cl s                95      0.357388   8 Cl s         
    35      0.327526   3 C  s                93     -0.279759   8 Cl s         
    92     -0.170323   8 Cl s                20      0.110394   2 C  s         
    36      0.107015   3 C  s                66     -0.105510   5 Cl s         
    67     -0.092864   5 Cl s                33     -0.082922   3 C  s         
 
 Vector   18  Occ=1.000000D+00  E=-7.086621D-01
              MO Center=  6.0D-02,  4.4D-02,  2.6D-01, r^2= 4.3D+00
   Bfn.  Coefficient  Atom+Function         Bfn.  Coefficient  Atom+Function  
  ----- ------------  ---------------      ----- ------------  ---------------
    94     -0.307912   8 Cl s                20      0.289317   2 C  s         
    66     -0.257945   5 Cl s                95     -0.257710   8 Cl s         
     5      0.234259   1 C  s                67     -0.234072   5 Cl s         
    93      0.188578   8 Cl s                65      0.158992   5 Cl s         
    35      0.128676   3 C  s                92      0.115596   8 Cl s         
 
 Vector   19  Occ=1.000000D+00  E=-6.322860D-01
              MO Center= -1.4D-02,  1.3D-01,  4.9D-01, r^2= 4.7D+00
   Bfn.  Coefficient  Atom+Function         Bfn.  Coefficient  Atom+Function  
  ----- ------------  ---------------      ----- ------------  ---------------
     5      0.326616   1 C  s                35     -0.278380   3 C  s         
    94      0.265143   8 Cl s                66     -0.245738   5 Cl s         
    95      0.241601   8 Cl s                67     -0.237417   5 Cl s         
    93     -0.162008   8 Cl s                65      0.150441   5 Cl s         
    22     -0.133257   2 C  px                6      0.120312   1 C  s         
 
 Vector   20  Occ=1.000000D+00  E=-5.744232D-01
              MO Center=  2.2D-01, -1.0D-01, -4.1D-01, r^2= 2.8D+00
   Bfn.  Coefficient  Atom+Function         Bfn.  Coefficient  Atom+Function  
  ----- ------------  ---------------      ----- ------------  ---------------
    54      0.242919   4 O  pz               20      0.239423   2 C  s         
    35     -0.238246   3 C  s                57      0.187919   4 O  pz        
    52      0.185353   4 O  px               55      0.161841   4 O  px        
   118     -0.147367  11 H  s                24     -0.139057   2 C  pz        
   117     -0.127984  11 H  s                51     -0.112953   4 O  s         
 
 Vector   21  Occ=1.000000D+00  E=-4.874769D-01
              MO Center= -7.0D-01,  3.0D-01,  4.5D-01, r^2= 2.9D+00
   Bfn.  Coefficient  Atom+Function         Bfn.  Coefficient  Atom+Function  
  ----- ------------  ---------------      ----- ------------  ---------------
    20      0.205420   2 C  s                 9     -0.187069   1 C  pz        
     6     -0.177563   1 C  s                28     -0.165604   2 C  px        
     7      0.155944   1 C  px               52     -0.148780   4 O  px        
    12     -0.139201   1 C  pz                5     -0.136222   1 C  s         
    50     -0.135314   4 O  s                25     -0.131554   2 C  px        
 
 Vector   22  Occ=1.000000D+00  E=-4.606784D-01
              MO Center= -3.0D-01,  2.5D-01,  7.2D-01, r^2= 2.9D+00
   Bfn.  Coefficient  Atom+Function         Bfn.  Coefficient  Atom+Function  
  ----- ------------  ---------------      ----- ------------  ---------------
     8      0.223888   1 C  py               11      0.197207   1 C  py        
    23      0.165648   2 C  py               38      0.146531   3 C  py        
    26      0.140789   2 C  py               41      0.130142   3 C  py        
    53      0.115041   4 O  py               87     -0.104029   7 H  s         
    14      0.099431   1 C  py               84      0.099079   6 H  s         
 
 Vector   23  Occ=1.000000D+00  E=-4.439335D-01
              MO Center=  7.0D-02,  1.1D-01,  2.1D-01, r^2= 4.3D+00
   Bfn.  Coefficient  Atom+Function         Bfn.  Coefficient  Atom+Function  
  ----- ------------  ---------------      ----- ------------  ---------------
    37      0.193520   3 C  px               36      0.168137   3 C  s         
    77      0.163761   5 Cl px               54      0.162288   4 O  pz        
    22     -0.158118   2 C  px               24     -0.150721   2 C  pz        
    40      0.147418   3 C  px               25     -0.141365   2 C  px        
    28     -0.132647   2 C  px               57      0.130787   4 O  pz        
 
 Vector   24  Occ=1.000000D+00  E=-4.123688D-01
              MO Center=  3.8D-01,  1.5D-01,  9.2D-01, r^2= 3.6D+00
   Bfn.  Coefficient  Atom+Function         Bfn.  Coefficient  Atom+Function  
  ----- ------------  ---------------      ----- ------------  ---------------
    38      0.215390   3 C  py               41      0.193395   3 C  py        
     8     -0.189241   1 C  py               11     -0.173979   1 C  py        
    39     -0.134859   3 C  pz              112     -0.134101   9 H  s         
    42     -0.121375   3 C  pz              111     -0.115997   9 H  s         
   115      0.112047  10 H  s                78     -0.110732   5 Cl py        
 
 Vector   25  Occ=1.000000D+00  E=-3.969031D-01
              MO Center= -5.4D-01,  2.6D-01,  2.9D-01, r^2= 5.6D+00
   Bfn.  Coefficient  Atom+Function         Bfn.  Coefficient  Atom+Function  
  ----- ------------  ---------------      ----- ------------  ---------------
    77      0.267445   5 Cl px               39     -0.159955   3 C  pz        
    12     -0.153972   1 C  pz               42     -0.153075   3 C  pz        
   105     -0.147522   8 Cl px               67     -0.139854   5 Cl s         
    79      0.140129   5 Cl pz                9     -0.134213   1 C  pz        
    80      0.128460   5 Cl px               74      0.125078   5 Cl px        
 
 Vector   26  Occ=1.000000D+00  E=-3.762099D-01
              MO Center=  1.2D+00, -3.5D-01,  7.7D-02, r^2= 5.7D+00
   Bfn.  Coefficient  Atom+Function         Bfn.  Coefficient  Atom+Function  
  ----- ------------  ---------------      ----- ------------  ---------------
   105      0.245036   8 Cl px               28      0.188226   2 C  px        
    95      0.182072   8 Cl s               107     -0.178220   8 Cl pz        
    42      0.174403   3 C  pz              106     -0.169943   8 Cl py        
    39      0.160358   3 C  pz               79      0.156957   5 Cl pz        
    36     -0.154476   3 C  s                40     -0.139246   3 C  px        
 
 Vector   27  Occ=1.000000D+00  E=-3.492536D-01
              MO Center=  8.4D-02, -8.9D-02, -5.2D-01, r^2= 2.3D+00
   Bfn.  Coefficient  Atom+Function         Bfn.  Coefficient  Atom+Function  
  ----- ------------  ---------------      ----- ------------  ---------------
    53      0.370853   4 O  py               56      0.316371   4 O  py        
    59      0.199081   4 O  py               23      0.152934   2 C  py        
    26      0.148349   2 C  py               38     -0.111324   3 C  py        
    41     -0.106195   3 C  py               52      0.085688   4 O  px        
   115     -0.085640  10 H  s                29      0.084755   2 C  py        
 
 Vector   28  Occ=1.000000D+00  E=-3.193337D-01
              MO Center= -4.9D-02, -9.9D-02, -6.5D-01, r^2= 2.2D+00
   Bfn.  Coefficient  Atom+Function         Bfn.  Coefficient  Atom+Function  
  ----- ------------  ---------------      ----- ------------  ---------------
    52      0.290143   4 O  px               55      0.247205   4 O  px        
     6      0.242301   1 C  s                36     -0.206562   3 C  s         
    54     -0.199325   4 O  pz               28      0.190779   2 C  px        
    51      0.191014   4 O  s                50      0.164898   4 O  s         
    57     -0.159136   4 O  pz              118     -0.148962  11 H  s         
 
 Vector   29  Occ=1.000000D+00  E=-3.039949D-01
              MO Center= -2.3D+00,  6.8D-01, -8.2D-02, r^2= 2.3D+00
   Bfn.  Coefficient  Atom+Function         Bfn.  Coefficient  Atom+Function  
  ----- ------------  ---------------      ----- ------------  ---------------
    79      0.416222   5 Cl pz               82      0.275402   5 Cl pz        
    77     -0.267126   5 Cl px               76      0.196068   5 Cl pz        
    80     -0.182166   5 Cl px               78      0.159973   5 Cl py        
    21      0.153938   2 C  s                70     -0.125415   5 Cl pz        
    74     -0.121733   5 Cl px               81      0.110211   5 Cl py        
 
 Vector   30  Occ=1.000000D+00  E=-2.916082D-01
              MO Center= -2.4D+00,  7.1D-01,  2.2D-02, r^2= 1.9D+00
   Bfn.  Coefficient  Atom+Function         Bfn.  Coefficient  Atom+Function  
  ----- ------------  ---------------      ----- ------------  ---------------
    78      0.486892   5 Cl py               81      0.336961   5 Cl py        
    75      0.231607   5 Cl py               77      0.151008   5 Cl px        
    69     -0.147197   5 Cl py               87      0.118839   7 H  s         
    72     -0.118161   5 Cl py               80      0.106402   5 Cl px        
    84     -0.105020   6 H  s                85     -0.103155   6 H  s         
 
 Vector   31  Occ=1.000000D+00  E=-2.603825D-01
              MO Center=  2.4D+00, -8.3D-01, -2.1D-01, r^2= 1.9D+00
   Bfn.  Coefficient  Atom+Function         Bfn.  Coefficient  Atom+Function  
  ----- ------------  ---------------      ----- ------------  ---------------
   107      0.386205   8 Cl pz              105      0.350764   8 Cl px        
   110      0.260709   8 Cl pz              108      0.235642   8 Cl px        
   104      0.182787   8 Cl pz               21      0.178438   2 C  s         
   102      0.165248   8 Cl px               36     -0.118792   3 C  s         
    98     -0.116493   8 Cl pz               25      0.111269   2 C  px        
 
 Vector   32  Occ=1.000000D+00  E=-2.586046D-01
              MO Center=  2.5D+00, -8.2D-01, -1.5D-01, r^2= 1.8D+00
   Bfn.  Coefficient  Atom+Function         Bfn.  Coefficient  Atom+Function  
  ----- ------------  ---------------      ----- ------------  ---------------
   106      0.452952   8 Cl py              109      0.316062   8 Cl py        
   103      0.216358   8 Cl py              107     -0.217224   8 Cl pz        
   110     -0.151680   8 Cl pz               97     -0.137418   8 Cl py        
   105      0.130411   8 Cl px              115     -0.117334  10 H  s         
   112      0.114713   9 H  s               100     -0.110303   8 Cl py        
 
 Vector   33  Occ=1.000000D+00  E=-1.129185D-01
              MO Center=  5.1D-02,  4.9D-02,  6.4D-02, r^2= 2.3D+00
   Bfn.  Coefficient  Atom+Function         Bfn.  Coefficient  Atom+Function  
  ----- ------------  ---------------      ----- ------------  ---------------
    26      0.419366   2 C  py               23      0.376428   2 C  py        
    29      0.330225   2 C  py               59     -0.294027   4 O  py        
    53     -0.266289   4 O  py               56     -0.222537   4 O  py        
   116     -0.218950  10 H  s                88      0.210920   7 H  s         
    85     -0.192234   6 H  s               113      0.170966   9 H  s         
 
 Vector   34  Occ=0.000000D+00  E=-6.999009D-02
              MO Center= -8.9D-01,  3.4D-01,  3.7D-01, r^2= 5.7D+00
   Bfn.  Coefficient  Atom+Function         Bfn.  Coefficient  Atom+Function  
  ----- ------------  ---------------      ----- ------------  ---------------
     6      0.739275   1 C  s                67     -0.575373   5 Cl s         
    80     -0.453934   5 Cl px               13     -0.330914   1 C  px        
    82     -0.315480   5 Cl pz               95     -0.315969   8 Cl s         
    77     -0.296476   5 Cl px               15     -0.288232   1 C  pz        
    10     -0.280070   1 C  px               36      0.276131   3 C  s         
 
 Vector   35  Occ=0.000000D+00  E=-8.613352D-03
              MO Center= -3.8D-01,  2.5D-01,  6.5D-01, r^2= 7.1D+00
   Bfn.  Coefficient  Atom+Function         Bfn.  Coefficient  Atom+Function  
  ----- ------------  ---------------      ----- ------------  ---------------
     6      1.345956   1 C  s                36      1.120256   3 C  s         
    88     -0.927123   7 H  s                85     -0.846617   6 H  s         
   113     -0.718118   9 H  s               116     -0.684138  10 H  s         
   119     -0.643060  11 H  s                15      0.525048   1 C  pz        
    51      0.523839   4 O  s                45      0.367139   3 C  pz        
 
 Vector   36  Occ=0.000000D+00  E=-6.994854D-03
              MO Center=  9.4D-01, -1.4D-01,  3.1D-01, r^2= 5.9D+00
   Bfn.  Coefficient  Atom+Function         Bfn.  Coefficient  Atom+Function  
  ----- ------------  ---------------      ----- ------------  ---------------
    36      1.041557   3 C  s                95     -0.638775   8 Cl s         
     6     -0.439343   1 C  s                28     -0.438545   2 C  px        
   108      0.406569   8 Cl px               45     -0.404265   3 C  pz        
    67      0.381519   5 Cl s               110     -0.347516   8 Cl pz        
    40      0.330711   3 C  px               10      0.309734   1 C  px        
 
 Vector   37  Occ=0.000000D+00  E= 2.693407D-02
              MO Center= -8.9D-01,  5.5D-02, -8.2D-01, r^2= 5.7D+00
   Bfn.  Coefficient  Atom+Function         Bfn.  Coefficient  Atom+Function  
  ----- ------------  ---------------      ----- ------------  ---------------
   119      1.499648  11 H  s                 6      0.719671   1 C  s         
    88     -0.637976   7 H  s               116     -0.566833  10 H  s         
    30      0.553672   2 C  pz               85     -0.543970   6 H  s         
    51     -0.429249   4 O  s                28      0.408148   2 C  px        
   113     -0.399402   9 H  s                45      0.382957   3 C  pz        
 
 Vector   38  Occ=0.000000D+00  E= 4.926975D-02
              MO Center=  3.4D-01,  4.1D-01,  1.6D+00, r^2= 7.0D+00
   Bfn.  Coefficient  Atom+Function         Bfn.  Coefficient  Atom+Function  
  ----- ------------  ---------------      ----- ------------  ---------------
    36      1.963222   3 C  s                 6     -1.721626   1 C  s         
   113     -1.411804   9 H  s                85      1.374638   6 H  s         
   116     -0.787799  10 H  s                45      0.614413   3 C  pz        
    13     -0.575267   1 C  px               88      0.426289   7 H  s         
    28     -0.340818   2 C  px               43     -0.327983   3 C  px        
 
 Vector   39  Occ=0.000000D+00  E= 5.763485D-02
              MO Center= -1.0D-01,  4.1D-01,  1.6D+00, r^2= 6.0D+00
   Bfn.  Coefficient  Atom+Function         Bfn.  Coefficient  Atom+Function  
  ----- ------------  ---------------      ----- ------------  ---------------
    88      1.862247   7 H  s                85     -1.516222   6 H  s         
   116     -1.481996  10 H  s                14      1.462216   1 C  py        
    44      1.073596   3 C  py              113      1.032043   9 H  s         
    29     -0.715171   2 C  py                6     -0.606634   1 C  s         
    36      0.551136   3 C  s                28     -0.525669   2 C  px        
 
 Vector   40  Occ=0.000000D+00  E= 7.997956D-02
              MO Center=  4.8D-01,  3.7D-01,  1.6D+00, r^2= 5.8D+00
   Bfn.  Coefficient  Atom+Function         Bfn.  Coefficient  Atom+Function  
  ----- ------------  ---------------      ----- ------------  ---------------
   113      1.757137   9 H  s               116     -1.695355  10 H  s         
    88     -1.374143   7 H  s                85      1.321791   6 H  s         
    44      1.192276   3 C  py               14     -0.923736   1 C  py        
    45     -0.458066   3 C  pz               15      0.321923   1 C  pz        
    43      0.281439   3 C  px               11     -0.258200   1 C  py        
 
 Vector   41  Occ=0.000000D+00  E= 1.168469D-01
              MO Center= -3.7D-01,  4.1D-01,  1.3D+00, r^2= 6.4D+00
   Bfn.  Coefficient  Atom+Function         Bfn.  Coefficient  Atom+Function  
  ----- ------------  ---------------      ----- ------------  ---------------
    21      4.315185   2 C  s                 6     -1.600465   1 C  s         
    15      1.521198   1 C  pz               13     -1.445177   1 C  px        
    43      1.284831   3 C  px               36     -1.119940   3 C  s         
    14      0.624955   1 C  py               30      0.541305   2 C  pz        
    28     -0.495338   2 C  px               88     -0.431778   7 H  s         
 
 Vector   42  Occ=0.000000D+00  E= 1.566421D-01
              MO Center=  1.1D-01,  2.7D-01,  1.4D+00, r^2= 6.4D+00
   Bfn.  Coefficient  Atom+Function         Bfn.  Coefficient  Atom+Function  
  ----- ------------  ---------------      ----- ------------  ---------------
    28      3.422339   2 C  px               15     -2.958240   1 C  pz        
    36     -2.541096   3 C  s                43      2.020448   3 C  px        
    45      1.562142   3 C  pz               85      1.485736   6 H  s         
    21      1.157694   2 C  s                 6      1.129144   1 C  s         
    88      1.033494   7 H  s               116     -1.011880  10 H  s         
 
 Vector   43  Occ=0.000000D+00  E= 1.634270D-01
              MO Center=  7.3D-01,  2.1D-01,  1.1D+00, r^2= 5.3D+00
   Bfn.  Coefficient  Atom+Function         Bfn.  Coefficient  Atom+Function  
  ----- ------------  ---------------      ----- ------------  ---------------
    45      2.458026   3 C  pz               28      1.513390   2 C  px        
   113     -1.313540   9 H  s                 6      1.182549   1 C  s         
    13      0.807202   1 C  px               43      0.691936   3 C  px        
    44      0.622448   3 C  py               29     -0.618972   2 C  py        
    88      0.605174   7 H  s                30     -0.569733   2 C  pz        
 
 Vector   44  Occ=0.000000D+00  E= 1.913215D-01
              MO Center= -7.9D-01,  1.4D-01,  1.3D-02, r^2= 6.7D+00
   Bfn.  Coefficient  Atom+Function         Bfn.  Coefficient  Atom+Function  
  ----- ------------  ---------------      ----- ------------  ---------------
    30      2.360660   2 C  pz               13     -1.858108   1 C  px        
    51      1.442812   4 O  s                 6     -1.163631   1 C  s         
   113      0.910029   9 H  s                45     -0.848469   3 C  pz        
    67     -0.832318   5 Cl s                29      0.804552   2 C  py        
    28     -0.686325   2 C  px               60      0.648061   4 O  pz        
 
 Vector   45  Occ=0.000000D+00  E= 2.108930D-01
              MO Center= -1.9D-01,  3.5D-01,  6.2D-02, r^2= 4.9D+00
   Bfn.  Coefficient  Atom+Function         Bfn.  Coefficient  Atom+Function  
  ----- ------------  ---------------      ----- ------------  ---------------
    14      1.002425   1 C  py               88      0.927356   7 H  s         
    30     -0.896804   2 C  pz               85     -0.716123   6 H  s         
   116     -0.717499  10 H  s                29      0.662683   2 C  py        
    26     -0.641364   2 C  py               45      0.571691   3 C  pz        
    15     -0.464149   1 C  pz               44      0.458594   3 C  py        
 
 Vector   46  Occ=0.000000D+00  E= 2.247924D-01
              MO Center=  5.4D-01, -9.6D-02,  6.4D-01, r^2= 7.7D+00
   Bfn.  Coefficient  Atom+Function         Bfn.  Coefficient  Atom+Function  
  ----- ------------  ---------------      ----- ------------  ---------------
    43      1.718605   3 C  px               45     -1.209941   3 C  pz        
    13      0.999284   1 C  px               44     -0.991386   3 C  py        
    95     -0.995097   8 Cl s                30      0.969133   2 C  pz        
    28      0.620090   2 C  px               67      0.556080   5 Cl s         
    15      0.541405   1 C  pz               36     -0.524404   3 C  s         
 
 Vector   47  Occ=0.000000D+00  E= 2.417365D-01
              MO Center=  2.4D-01, -2.6D-02,  3.7D-01, r^2= 6.2D+00
   Bfn.  Coefficient  Atom+Function         Bfn.  Coefficient  Atom+Function  
  ----- ------------  ---------------      ----- ------------  ---------------
    44     -1.323689   3 C  py               14      1.312788   1 C  py        
    36     -0.740072   3 C  s                45      0.735178   3 C  pz        
    30      0.621049   2 C  pz               28      0.566380   2 C  px        
   113     -0.511482   9 H  s               112     -0.486119   9 H  s         
    84     -0.452342   6 H  s                13      0.449586   1 C  px        
 
 Vector   48  Occ=0.000000D+00  E= 2.632031D-01
              MO Center= -5.7D-01,  1.2D-01, -4.8D-01, r^2= 8.7D+00
   Bfn.  Coefficient  Atom+Function         Bfn.  Coefficient  Atom+Function  
  ----- ------------  ---------------      ----- ------------  ---------------
    28      2.200970   2 C  px                6      1.997903   1 C  s         
    21     -1.535515   2 C  s               119      1.143628  11 H  s         
    15     -0.992935   1 C  pz               14     -0.901082   1 C  py        
   118     -0.804671  11 H  s                80     -0.734976   5 Cl px        
    85      0.694877   6 H  s                51      0.597049   4 O  s         
 
 Vector   49  Occ=0.000000D+00  E= 2.842813D-01
              MO Center=  2.4D-01,  1.3D-02,  1.1D-01, r^2= 5.5D+00
   Bfn.  Coefficient  Atom+Function         Bfn.  Coefficient  Atom+Function  
  ----- ------------  ---------------      ----- ------------  ---------------
    30     -2.577930   2 C  pz                6      2.347676   1 C  s         
    36      1.981563   3 C  s                21     -1.606085   2 C  s         
    45      1.152014   3 C  pz               29     -0.932426   2 C  py        
    51     -0.765188   4 O  s                40     -0.693939   3 C  px        
    14      0.641827   1 C  py               20     -0.520700   2 C  s         
 
 Vector   50  Occ=0.000000D+00  E= 2.917577D-01
              MO Center= -4.2D-01, -5.1D-02, -6.0D-01, r^2= 6.8D+00
   Bfn.  Coefficient  Atom+Function         Bfn.  Coefficient  Atom+Function  
  ----- ------------  ---------------      ----- ------------  ---------------
    28      3.791408   2 C  px               36     -3.774503   3 C  s         
    30      2.092777   2 C  pz               21      1.927668   2 C  s         
   119      1.410288  11 H  s                43      1.190304   3 C  px        
    15     -1.150675   1 C  pz               45      1.139907   3 C  pz        
   116     -0.860089  10 H  s               118     -0.739061  11 H  s         
 
 Vector   51  Occ=0.000000D+00  E= 3.167474D-01
              MO Center= -5.8D-01,  9.4D-02, -1.6D-01, r^2= 1.0D+01
   Bfn.  Coefficient  Atom+Function         Bfn.  Coefficient  Atom+Function  
  ----- ------------  ---------------      ----- ------------  ---------------
     6      1.748219   1 C  s                80     -0.962135   5 Cl px        
    36     -0.896405   3 C  s                15      0.610300   1 C  pz        
    30     -0.607019   2 C  pz               77      0.599794   5 Cl px        
   108     -0.587296   8 Cl px               25      0.544149   2 C  px        
    51     -0.491226   4 O  s                82     -0.487222   5 Cl pz        
 
 Vector   52  Occ=0.000000D+00  E= 3.409572D-01
              MO Center=  4.2D-01,  2.1D-02,  1.1D-01, r^2= 7.6D+00
   Bfn.  Coefficient  Atom+Function         Bfn.  Coefficient  Atom+Function  
  ----- ------------  ---------------      ----- ------------  ---------------
    14      2.325871   1 C  py               44      2.333998   3 C  py        
    29     -2.299635   2 C  py               30      1.168639   2 C  pz        
   116     -1.163660  10 H  s                88      1.083163   7 H  s         
    15     -0.966971   1 C  pz               28      0.937234   2 C  px        
    85     -0.747862   6 H  s               113      0.684838   9 H  s         
 
 Vector   53  Occ=0.000000D+00  E= 3.419920D-01
              MO Center= -1.7D-01,  1.4D-01,  1.5D-01, r^2= 7.4D+00
   Bfn.  Coefficient  Atom+Function         Bfn.  Coefficient  Atom+Function  
  ----- ------------  ---------------      ----- ------------  ---------------
    28      4.344463   2 C  px               45      1.985248   3 C  pz        
    14     -1.919372   1 C  py               85      1.844041   6 H  s         
   113     -1.538931   9 H  s                36     -1.517783   3 C  s         
     6      1.442439   1 C  s                44     -1.414000   3 C  py        
    15     -1.050364   1 C  pz               30     -1.023721   2 C  pz        
 
 Vector   54  Occ=0.000000D+00  E= 3.496202D-01
              MO Center=  2.1D-01, -1.1D-01, -8.2D-02, r^2= 8.6D+00
   Bfn.  Coefficient  Atom+Function         Bfn.  Coefficient  Atom+Function  
  ----- ------------  ---------------      ----- ------------  ---------------
    36      2.896495   3 C  s                28     -2.090383   2 C  px        
    29      1.253183   2 C  py               88     -1.003267   7 H  s         
    15      0.960008   1 C  pz               85     -0.956082   6 H  s         
    44     -0.946665   3 C  py                5     -0.749014   1 C  s         
    27     -0.678172   2 C  pz               80     -0.636744   5 Cl px        
 
 Vector   55  Occ=0.000000D+00  E= 3.611299D-01
              MO Center= -1.4D+00,  3.7D-01, -1.5D-01, r^2= 8.6D+00
   Bfn.  Coefficient  Atom+Function         Bfn.  Coefficient  Atom+Function  
  ----- ------------  ---------------      ----- ------------  ---------------
    14      2.737114   1 C  py               28     -2.655833   2 C  px        
   113      1.947897   9 H  s                45     -1.914821   3 C  pz        
    85     -1.594457   6 H  s                44      1.507077   3 C  py        
    81     -1.383356   5 Cl py                6     -1.063256   1 C  s         
    13      0.839119   1 C  px               78      0.739515   5 Cl py        
 
 Vector   56  Occ=0.000000D+00  E= 3.672922D-01
              MO Center= -1.2D+00,  2.7D-01, -2.5D-01, r^2= 7.5D+00
   Bfn.  Coefficient  Atom+Function         Bfn.  Coefficient  Atom+Function  
  ----- ------------  ---------------      ----- ------------  ---------------
    28      4.040581   2 C  px                6      2.983215   1 C  s         
    29     -1.857132   2 C  py               15     -1.757010   1 C  pz        
    36     -1.578491   3 C  s                45      1.317581   3 C  pz        
   116     -1.318058  10 H  s                82     -1.261723   5 Cl pz        
    88      1.203020   7 H  s                44      1.187990   3 C  py        
 
 Vector   57  Occ=0.000000D+00  E= 3.808504D-01
              MO Center= -4.4D-01,  3.5D-01,  1.5D+00, r^2= 5.2D+00
   Bfn.  Coefficient  Atom+Function         Bfn.  Coefficient  Atom+Function  
  ----- ------------  ---------------      ----- ------------  ---------------
    88      2.810093   7 H  s                14      2.338097   1 C  py        
    85     -2.256243   6 H  s               116     -1.438938  10 H  s         
    44      1.309732   3 C  py              113      1.016493   9 H  s         
    87     -0.984930   7 H  s                11     -0.968735   1 C  py        
    84      0.942235   6 H  s                29     -0.920325   2 C  py        
 
 Vector   58  Occ=0.000000D+00  E= 3.892176D-01
              MO Center=  1.5D+00, -4.0D-01,  3.3D-01, r^2= 8.1D+00
   Bfn.  Coefficient  Atom+Function         Bfn.  Coefficient  Atom+Function  
  ----- ------------  ---------------      ----- ------------  ---------------
    88     -1.406811   7 H  s                85      1.336675   6 H  s         
   113      1.205640   9 H  s                14     -1.144278   1 C  py        
   116     -1.102617  10 H  s               109      1.034954   8 Cl py        
   112     -0.809650   9 H  s               115      0.804395  10 H  s         
   106     -0.670338   8 Cl py              110     -0.608358   8 Cl pz        
 
 Vector   59  Occ=0.000000D+00  E= 4.011647D-01
              MO Center=  1.9D+00, -4.8D-01,  2.3D-02, r^2= 7.3D+00
   Bfn.  Coefficient  Atom+Function         Bfn.  Coefficient  Atom+Function  
  ----- ------------  ---------------      ----- ------------  ---------------
    28      2.748538   2 C  px              116     -1.640314  10 H  s         
     6      1.234869   1 C  s                29     -1.141697   2 C  py        
   108      1.044662   8 Cl px               45      1.021936   3 C  pz        
    15     -0.979357   1 C  pz               44      0.943519   3 C  py        
    88      0.911101   7 H  s               110      0.911549   8 Cl pz        
 
 Vector   60  Occ=0.000000D+00  E= 4.014973D-01
              MO Center=  1.1D+00, -1.1D-01,  6.2D-01, r^2= 8.3D+00
   Bfn.  Coefficient  Atom+Function         Bfn.  Coefficient  Atom+Function  
  ----- ------------  ---------------      ----- ------------  ---------------
    44      2.590465   3 C  py              113      2.559294   9 H  s         
   116     -2.451007  10 H  s                14     -1.667440   1 C  py        
    88     -1.615701   7 H  s                45     -1.383475   3 C  pz        
    85      1.383321   6 H  s               109     -1.053308   8 Cl py        
    43      0.785018   3 C  px               41     -0.722381   3 C  py        
 
 Vector   61  Occ=0.000000D+00  E= 4.274333D-01
              MO Center= -6.3D-01,  3.9D-01,  2.9D-01, r^2= 7.0D+00
   Bfn.  Coefficient  Atom+Function         Bfn.  Coefficient  Atom+Function  
  ----- ------------  ---------------      ----- ------------  ---------------
     6      1.892801   1 C  s                28      1.570361   2 C  px        
    36     -1.517379   3 C  s                 5     -0.997337   1 C  s         
    35      0.880426   3 C  s               118      0.748875  11 H  s         
    85     -0.678882   6 H  s               115     -0.646456  10 H  s         
    82      0.631503   5 Cl pz              116      0.533283  10 H  s         
 
 Vector   62  Occ=0.000000D+00  E= 4.439804D-01
              MO Center= -2.2D-01,  2.7D-01,  7.8D-01, r^2= 5.0D+00
   Bfn.  Coefficient  Atom+Function         Bfn.  Coefficient  Atom+Function  
  ----- ------------  ---------------      ----- ------------  ---------------
     6      2.159702   1 C  s                85     -1.406016   6 H  s         
     5     -1.317852   1 C  s                35     -1.045564   3 C  s         
    45      0.938727   3 C  pz               20     -0.905027   2 C  s         
    88     -0.893989   7 H  s               113     -0.889373   9 H  s         
    28      0.855338   2 C  px               21      0.787924   2 C  s         
 
 Vector   63  Occ=0.000000D+00  E= 4.613875D-01
              MO Center=  4.5D-01,  1.0D-01,  9.1D-01, r^2= 7.4D+00
   Bfn.  Coefficient  Atom+Function         Bfn.  Coefficient  Atom+Function  
  ----- ------------  ---------------      ----- ------------  ---------------
    36      2.629082   3 C  s                 6     -1.857147   1 C  s         
   113     -1.765463   9 H  s                43      1.556613   3 C  px        
    13      1.420645   1 C  px               28     -1.344127   2 C  px        
    35     -1.193039   3 C  s               116     -1.160075  10 H  s         
   112      0.865971   9 H  s                85      0.859414   6 H  s         
 
 Vector   64  Occ=0.000000D+00  E= 4.845939D-01
              MO Center=  9.8D-02,  1.1D-01,  5.4D-01, r^2= 5.8D+00
   Bfn.  Coefficient  Atom+Function         Bfn.  Coefficient  Atom+Function  
  ----- ------------  ---------------      ----- ------------  ---------------
    21      4.641804   2 C  s                30      2.857669   2 C  pz        
    20     -1.912753   2 C  s                43      1.567358   3 C  px        
    13     -1.111570   1 C  px               88     -0.984450   7 H  s         
   116     -0.921112  10 H  s                15      0.813254   1 C  pz        
     5     -0.765981   1 C  s               119      0.767187  11 H  s         
 
 Vector   65  Occ=0.000000D+00  E= 5.017606D-01
              MO Center= -6.1D-02, -1.5D-01, -9.8D-01, r^2= 4.7D+00
   Bfn.  Coefficient  Atom+Function         Bfn.  Coefficient  Atom+Function  
  ----- ------------  ---------------      ----- ------------  ---------------
    29      2.133538   2 C  py               59     -1.841947   4 O  py        
    14     -1.309812   1 C  py               44     -1.301733   3 C  py        
    21      1.033228   2 C  s                36     -0.922635   3 C  s         
    28      0.847168   2 C  px               56      0.650267   4 O  py        
    45      0.556104   3 C  pz               13     -0.548773   1 C  px        
 
 Vector   66  Occ=0.000000D+00  E= 5.421897D-01
              MO Center= -4.0D-01, -1.3D-01, -1.2D+00, r^2= 5.5D+00
   Bfn.  Coefficient  Atom+Function         Bfn.  Coefficient  Atom+Function  
  ----- ------------  ---------------      ----- ------------  ---------------
    21      3.554659   2 C  s                60     -2.315535   4 O  pz        
    28     -2.051952   2 C  px              119     -2.000808  11 H  s         
    13     -0.960387   1 C  px               82     -0.943451   5 Cl pz        
     5     -0.787444   1 C  s                51     -0.770735   4 O  s         
    15      0.698566   1 C  pz               85     -0.659468   6 H  s         
 
 Vector   67  Occ=0.000000D+00  E= 5.802105D-01
              MO Center=  1.2D-01,  5.3D-02,  3.5D-01, r^2= 5.8D+00
   Bfn.  Coefficient  Atom+Function         Bfn.  Coefficient  Atom+Function  
  ----- ------------  ---------------      ----- ------------  ---------------
    21     11.041089   2 C  s                36     -5.569639   3 C  s         
     6     -5.314151   1 C  s                20     -2.647153   2 C  s         
    43      2.257261   3 C  px               30      2.001481   2 C  pz        
    28      1.669122   2 C  px                5      1.508057   1 C  s         
    13     -1.504396   1 C  px               58     -1.079259   4 O  px        
 
 Vector   68  Occ=0.000000D+00  E= 6.650809D-01
              MO Center=  5.7D-01, -2.1D-01, -5.2D-01, r^2= 5.3D+00
   Bfn.  Coefficient  Atom+Function         Bfn.  Coefficient  Atom+Function  
  ----- ------------  ---------------      ----- ------------  ---------------
     6      4.640687   1 C  s                21     -4.357618   2 C  s         
    36      3.582616   3 C  s                28      3.528161   2 C  px        
    58     -3.259768   4 O  px               30     -1.910779   2 C  pz        
    35     -1.760004   3 C  s                15     -1.461180   1 C  pz        
    29     -1.303813   2 C  py              118     -1.267359  11 H  s         
 
 Vector   69  Occ=0.000000D+00  E= 7.646629D-01
              MO Center=  8.4D-02,  1.6D-01,  6.5D-01, r^2= 6.7D+00
   Bfn.  Coefficient  Atom+Function         Bfn.  Coefficient  Atom+Function  
  ----- ------------  ---------------      ----- ------------  ---------------
     6     10.747007   1 C  s                36    -10.394238   3 C  s         
    28      8.714785   2 C  px                5     -2.578291   1 C  s         
    35      2.502865   3 C  s                15     -2.297795   1 C  pz        
    43      2.270324   3 C  px               45      1.967353   3 C  pz        
    58     -1.886512   4 O  px               29     -1.857936   2 C  py        
 
 Vector   70  Occ=0.000000D+00  E= 9.237049D-01
              MO Center= -2.2D+00,  6.3D-01,  7.1D-03, r^2= 3.9D+00
   Bfn.  Coefficient  Atom+Function         Bfn.  Coefficient  Atom+Function  
  ----- ------------  ---------------      ----- ------------  ---------------
    67      3.967441   5 Cl s                21      3.825216   2 C  s         
    36     -3.512347   3 C  s                66     -2.797533   5 Cl s         
     6     -2.737581   1 C  s                28      2.026425   2 C  px        
    43      1.272321   3 C  px               80      1.095073   5 Cl px        
    58     -0.757584   4 O  px               35      0.734130   3 C  s         
 
 Vector   71  Occ=0.000000D+00  E= 9.605823D-01
              MO Center=  2.0D+00, -6.5D-01, -1.3D-01, r^2= 4.1D+00
   Bfn.  Coefficient  Atom+Function         Bfn.  Coefficient  Atom+Function  
  ----- ------------  ---------------      ----- ------------  ---------------
    95     -3.876233   8 Cl s                36      3.733709   3 C  s         
    94      2.686785   8 Cl s                21     -2.592304   2 C  s         
     6      1.507480   1 C  s                13      0.938238   1 C  px        
   108      0.928109   8 Cl px               51     -0.891012   4 O  s         
    58      0.859120   4 O  px               45     -0.818241   3 C  pz        
 
 Vector   72  Occ=0.000000D+00  E= 1.107444D+00
              MO Center=  4.9D-02, -1.9D-01, -8.8D-01, r^2= 3.2D+00
   Bfn.  Coefficient  Atom+Function         Bfn.  Coefficient  Atom+Function  
  ----- ------------  ---------------      ----- ------------  ---------------
    51      6.142600   4 O  s                50     -2.992090   4 O  s         
    30      2.606286   2 C  pz               21     -2.273668   2 C  s         
    60      1.345588   4 O  pz               28      1.237716   2 C  px        
    95     -1.033259   8 Cl s               118     -0.905407  11 H  s         
    43      0.883424   3 C  px               27      0.877931   2 C  pz        
 
 Vector   73  Occ=0.000000D+00  E= 1.270934D+00
              MO Center= -4.2D-02,  1.4D-01,  4.1D-01, r^2= 2.7D+00
   Bfn.  Coefficient  Atom+Function         Bfn.  Coefficient  Atom+Function  
  ----- ------------  ---------------      ----- ------------  ---------------
    27      1.782893   2 C  pz               51      1.266143   4 O  s         
    12      1.038186   1 C  pz                6     -0.928482   1 C  s         
    40      0.879719   3 C  px               21     -0.872878   2 C  s         
    36     -0.765619   3 C  s                42      0.746824   3 C  pz        
     9     -0.727184   1 C  pz               24     -0.725841   2 C  pz        
 
 Vector   74  Occ=0.000000D+00  E= 1.318563D+00
              MO Center= -3.3D-02,  8.8D-02,  2.8D-01, r^2= 1.9D+00
   Bfn.  Coefficient  Atom+Function         Bfn.  Coefficient  Atom+Function  
  ----- ------------  ---------------      ----- ------------  ---------------
    26      1.494350   2 C  py               23     -1.100672   2 C  py        
    14     -0.716921   1 C  py               11      0.644939   1 C  py        
    29     -0.593442   2 C  py               85      0.537249   6 H  s         
    88     -0.520629   7 H  s                44     -0.472563   3 C  py        
     8     -0.466642   1 C  py               41      0.407934   3 C  py        
 
 Vector   75  Occ=0.000000D+00  E= 1.372049D+00
              MO Center=  7.7D-01,  3.3D-02,  6.7D-01, r^2= 3.8D+00
   Bfn.  Coefficient  Atom+Function         Bfn.  Coefficient  Atom+Function  
  ----- ------------  ---------------      ----- ------------  ---------------
    40     -1.878247   3 C  px               36      1.817637   3 C  s         
    95     -1.085645   8 Cl s                30     -0.964567   2 C  pz        
    37      0.942239   3 C  px               25     -0.931526   2 C  px        
    51     -0.915351   4 O  s                10      0.877745   1 C  px        
    20     -0.867313   2 C  s                94      0.817528   8 Cl s         
 
 Vector   76  Occ=0.000000D+00  E= 1.381762D+00
              MO Center= -6.6D-01,  3.4D-01,  6.9D-01, r^2= 2.8D+00
   Bfn.  Coefficient  Atom+Function         Bfn.  Coefficient  Atom+Function  
  ----- ------------  ---------------      ----- ------------  ---------------
     6      2.707966   1 C  s                25      2.095179   2 C  px        
    10      2.063106   1 C  px               36     -1.874510   3 C  s         
    13     -1.059667   1 C  px                7     -0.981397   1 C  px        
    67     -0.837668   5 Cl s                58     -0.791111   4 O  px        
    22     -0.725783   2 C  px               40      0.691189   3 C  px        
 
 Vector   77  Occ=0.000000D+00  E= 1.422843D+00
              MO Center=  8.8D-02,  1.4D-01,  7.4D-01, r^2= 3.4D+00
   Bfn.  Coefficient  Atom+Function         Bfn.  Coefficient  Atom+Function  
  ----- ------------  ---------------      ----- ------------  ---------------
    14     -1.757290   1 C  py               11      1.685912   1 C  py        
    41     -1.572829   3 C  py               44      1.511724   3 C  py        
    85      1.212922   6 H  s               116     -1.178305  10 H  s         
    88     -1.154157   7 H  s               113      0.979174   9 H  s         
     8     -0.895750   1 C  py               38      0.883225   3 C  py        
 
 Vector   78  Occ=0.000000D+00  E= 1.448132D+00
              MO Center=  1.7D-01,  2.1D-01,  8.1D-01, r^2= 3.7D+00
   Bfn.  Coefficient  Atom+Function         Bfn.  Coefficient  Atom+Function  
  ----- ------------  ---------------      ----- ------------  ---------------
    12      1.741712   1 C  pz               42     -1.608858   3 C  pz        
    15     -1.113018   1 C  pz               45      1.091120   3 C  pz        
    36      0.922613   3 C  s                 9     -0.904624   1 C  pz        
    39      0.865601   3 C  pz               88      0.743022   7 H  s         
    40     -0.738132   3 C  px                6     -0.704365   1 C  s         
 
 Vector   79  Occ=0.000000D+00  E= 1.511113D+00
              MO Center=  1.4D-01,  1.4D-01,  6.7D-01, r^2= 3.5D+00
   Bfn.  Coefficient  Atom+Function         Bfn.  Coefficient  Atom+Function  
  ----- ------------  ---------------      ----- ------------  ---------------
    14      2.095573   1 C  py               44      1.987115   3 C  py        
    11     -1.664316   1 C  py               41     -1.649105   3 C  py        
    29     -1.543140   2 C  py               85     -1.336907   6 H  s         
   113      1.286013   9 H  s                88      1.276102   7 H  s         
   116     -1.280666  10 H  s                26      1.145290   2 C  py        
 
 Vector   80  Occ=0.000000D+00  E= 1.605844D+00
              MO Center=  1.1D-01,  1.5D-01,  5.3D-01, r^2= 2.9D+00
   Bfn.  Coefficient  Atom+Function         Bfn.  Coefficient  Atom+Function  
  ----- ------------  ---------------      ----- ------------  ---------------
    27      2.567865   2 C  pz               30     -1.713382   2 C  pz        
    42     -1.292117   3 C  pz               12     -1.053008   1 C  pz        
    45      1.008684   3 C  pz               24     -0.958618   2 C  pz        
    20     -0.863408   2 C  s                15      0.809760   1 C  pz        
   112      0.810857   9 H  s               113     -0.794843   9 H  s         
 
 Vector   81  Occ=0.000000D+00  E= 1.723066D+00
              MO Center=  1.3D-01,  8.7D-02,  3.2D-01, r^2= 2.7D+00
   Bfn.  Coefficient  Atom+Function         Bfn.  Coefficient  Atom+Function  
  ----- ------------  ---------------      ----- ------------  ---------------
    28      2.905316   2 C  px               25     -2.028975   2 C  px        
    36     -1.538210   3 C  s                 6      1.342608   1 C  s         
     5     -1.124828   1 C  s                22      1.012885   2 C  px        
    35      0.973789   3 C  s                45      0.962850   3 C  pz        
    15     -0.843260   1 C  pz               29     -0.756804   2 C  py        
 
 Vector   82  Occ=0.000000D+00  E= 2.003374D+00
              MO Center= -1.2D+00,  4.2D-02, -1.3D+00, r^2= 1.9D+00
   Bfn.  Coefficient  Atom+Function         Bfn.  Coefficient  Atom+Function  
  ----- ------------  ---------------      ----- ------------  ---------------
   118      2.160223  11 H  s               117     -1.230460  11 H  s         
   119     -1.000187  11 H  s                55      0.749717   4 O  px        
    52     -0.525649   4 O  px               20      0.486900   2 C  s         
    77      0.484641   5 Cl px               30     -0.448019   2 C  pz        
    15     -0.437039   1 C  pz                6      0.434471   1 C  s         
 
 Vector   83  Occ=0.000000D+00  E= 2.078915D+00
              MO Center= -1.3D-01,  3.6D-01,  1.2D+00, r^2= 4.0D+00
   Bfn.  Coefficient  Atom+Function         Bfn.  Coefficient  Atom+Function  
  ----- ------------  ---------------      ----- ------------  ---------------
     5      2.307589   1 C  s                35      1.923575   3 C  s         
     4     -1.813935   1 C  s                34     -1.462223   3 C  s         
    20     -1.445559   2 C  s                21      1.243582   2 C  s         
     6     -1.186377   1 C  s                36     -1.141354   3 C  s         
    87     -1.062040   7 H  s                84     -0.967855   6 H  s         
 
 Vector   84  Occ=0.000000D+00  E= 2.148393D+00
              MO Center=  4.0D-01,  2.7D-01,  1.2D+00, r^2= 3.8D+00
   Bfn.  Coefficient  Atom+Function         Bfn.  Coefficient  Atom+Function  
  ----- ------------  ---------------      ----- ------------  ---------------
    35      2.236227   3 C  s                34     -1.871381   3 C  s         
     5     -1.796409   1 C  s                 4      1.518263   1 C  s         
    28     -1.216666   2 C  px              112     -1.220742   9 H  s         
   115     -1.130626  10 H  s                84      1.011667   6 H  s         
   113      0.918440   9 H  s                87      0.869091   7 H  s         
 
 Vector   85  Occ=0.000000D+00  E= 2.209569D+00
              MO Center= -1.5D+00,  5.8D-01,  7.1D-01, r^2= 4.6D+00
   Bfn.  Coefficient  Atom+Function         Bfn.  Coefficient  Atom+Function  
  ----- ------------  ---------------      ----- ------------  ---------------
    78     -1.348051   5 Cl py               75      1.279297   5 Cl py        
    87      1.094771   7 H  s                84     -1.055149   6 H  s         
    86     -0.696197   7 H  s                88     -0.682160   7 H  s         
    83      0.678421   6 H  s                85      0.665320   6 H  s         
   112     -0.527494   9 H  s               115      0.503148  10 H  s         
 
 Vector   86  Occ=0.000000D+00  E= 2.238686D+00
              MO Center=  1.4D+00, -2.2D-01,  4.3D-01, r^2= 5.9D+00
   Bfn.  Coefficient  Atom+Function         Bfn.  Coefficient  Atom+Function  
  ----- ------------  ---------------      ----- ------------  ---------------
   106     -1.208840   8 Cl py              103      1.149248   8 Cl py        
   112      1.090899   9 H  s               115     -1.082909  10 H  s         
   111     -0.704877   9 H  s                78     -0.694996   5 Cl py        
   114      0.692483  10 H  s                75      0.656506   5 Cl py        
   116      0.572680  10 H  s               113     -0.558968   9 H  s         
 
 Vector   87  Occ=0.000000D+00  E= 2.287769D+00
              MO Center=  3.3D-01, -1.6D-01, -8.4D-02, r^2= 7.7D+00
   Bfn.  Coefficient  Atom+Function         Bfn.  Coefficient  Atom+Function  
  ----- ------------  ---------------      ----- ------------  ---------------
    20      1.439773   2 C  s                21     -1.308446   2 C  s         
    19     -1.224083   2 C  s               105      1.209840   8 Cl px        
   102     -1.119715   8 Cl px               77     -1.031136   5 Cl px        
    74      0.949009   5 Cl px              107      0.732090   8 Cl pz        
   104     -0.688816   8 Cl pz               79      0.599270   5 Cl pz        
 
 Vector   88  Occ=0.000000D+00  E= 2.304989D+00
              MO Center= -1.2D-01, -3.2D-02,  2.3D-01, r^2= 8.2D+00
   Bfn.  Coefficient  Atom+Function         Bfn.  Coefficient  Atom+Function  
  ----- ------------  ---------------      ----- ------------  ---------------
   107     -1.298042   8 Cl pz              104      1.191356   8 Cl pz        
    77     -0.988178   5 Cl px               87     -0.962452   7 H  s         
    74      0.881972   5 Cl px               78     -0.712129   5 Cl py        
    75      0.652707   5 Cl py               86      0.633906   7 H  s         
    21     -0.619928   2 C  s                84      0.599324   6 H  s         
 
 Vector   89  Occ=0.000000D+00  E= 2.310338D+00
              MO Center= -1.9D+00,  7.1D-01,  1.6D-01, r^2= 4.2D+00
   Bfn.  Coefficient  Atom+Function         Bfn.  Coefficient  Atom+Function  
  ----- ------------  ---------------      ----- ------------  ---------------
    79      1.233548   5 Cl pz               77      1.140774   5 Cl px        
    76     -1.080519   5 Cl pz               84      1.085103   6 H  s         
    74     -0.989706   5 Cl px               21      0.943449   2 C  s         
     6     -0.848069   1 C  s                78     -0.831183   5 Cl py        
    75      0.754376   5 Cl py                5     -0.656132   1 C  s         
 
 Vector   90  Occ=0.000000D+00  E= 2.315373D+00
              MO Center= -6.3D-02, -8.2D-02, -1.5D-01, r^2= 8.5D+00
   Bfn.  Coefficient  Atom+Function         Bfn.  Coefficient  Atom+Function  
  ----- ------------  ---------------      ----- ------------  ---------------
    79      1.281230   5 Cl pz               76     -1.145022   5 Cl pz        
   107     -1.048215   8 Cl pz              104      0.949597   8 Cl pz        
   106     -0.877451   8 Cl py              103      0.800550   8 Cl py        
    28     -0.693736   2 C  px               36      0.695841   3 C  s         
    43     -0.678186   3 C  px               78      0.657725   5 Cl py        
 
 Vector   91  Occ=0.000000D+00  E= 2.337558D+00
              MO Center=  1.2D+00, -4.7D-01, -1.2D-01, r^2= 7.2D+00
   Bfn.  Coefficient  Atom+Function         Bfn.  Coefficient  Atom+Function  
  ----- ------------  ---------------      ----- ------------  ---------------
   105     -1.197218   8 Cl px              106      1.199115   8 Cl py        
    21      1.089201   2 C  s               103     -1.072292   8 Cl py        
   102      1.048685   8 Cl px               79      0.959000   5 Cl pz        
    76     -0.850387   5 Cl pz              112      0.731866   9 H  s         
    36     -0.704292   3 C  s                82     -0.546866   5 Cl pz        
 
 Vector   92  Occ=0.000000D+00  E= 2.341771D+00
              MO Center=  1.2D+00, -1.5D-01,  4.6D-01, r^2= 5.5D+00
   Bfn.  Coefficient  Atom+Function         Bfn.  Coefficient  Atom+Function  
  ----- ------------  ---------------      ----- ------------  ---------------
   115      1.107035  10 H  s               105     -0.894724   8 Cl px        
   112     -0.813244   9 H  s                44     -0.806255   3 C  py        
   102      0.796167   8 Cl px              107      0.760534   8 Cl pz        
   114     -0.738705  10 H  s               104     -0.681826   8 Cl pz        
    14     -0.675280   1 C  py              111      0.662068   9 H  s         
 
 Vector   93  Occ=0.000000D+00  E= 2.434312D+00
              MO Center=  2.5D-02,  7.5D-02,  2.1D-01, r^2= 3.0D+00
   Bfn.  Coefficient  Atom+Function         Bfn.  Coefficient  Atom+Function  
  ----- ------------  ---------------      ----- ------------  ---------------
    20      5.037645   2 C  s                21     -4.579121   2 C  s         
    19     -3.616828   2 C  s                30     -1.090044   2 C  pz        
    43     -0.820537   3 C  px               13      0.704969   1 C  px        
    18      0.687703   2 C  s                57     -0.681166   4 O  pz        
    34     -0.656415   3 C  s                35      0.616377   3 C  s         
 
 Vector   94  Occ=0.000000D+00  E= 2.511151D+00
              MO Center= -4.8D-02, -1.6D-01, -9.5D-01, r^2= 1.8D+00
   Bfn.  Coefficient  Atom+Function         Bfn.  Coefficient  Atom+Function  
  ----- ------------  ---------------      ----- ------------  ---------------
    56      1.621128   4 O  py               29      1.142025   2 C  py        
    53     -1.089580   4 O  py               59     -1.060838   4 O  py        
    14     -0.806211   1 C  py               44     -0.719623   3 C  py        
    36      0.425245   3 C  s                 6     -0.408782   1 C  s         
    26     -0.408969   2 C  py               55      0.408236   4 O  px        
 
 Vector   95  Occ=0.000000D+00  E= 2.609568D+00
              MO Center=  1.3D-01, -7.0D-02, -4.5D-01, r^2= 3.1D+00
   Bfn.  Coefficient  Atom+Function         Bfn.  Coefficient  Atom+Function  
  ----- ------------  ---------------      ----- ------------  ---------------
[...]
    34      1.786950   3 C  s                36      1.770278   3 C  s         
    33     -1.692434   3 C  s                35     -1.669163   3 C  s         
     2     -1.371894   1 C  s                28     -1.205442   2 C  px        
 
 Vector  104  Occ=0.000000D+00  E= 1.170558D+01
              MO Center=  5.9D-01,  6.8D-03,  4.2D-01, r^2= 9.3D-01
   Bfn.  Coefficient  Atom+Function         Bfn.  Coefficient  Atom+Function  
  ----- ------------  ---------------      ----- ------------  ---------------
    19     -2.627265   2 C  s                20      2.500492   2 C  s         
    18      2.467528   2 C  s                36      2.479749   3 C  s         
    21     -2.457259   2 C  s                34      2.314978   3 C  s         
    35     -2.249658   3 C  s                33     -2.154661   3 C  s         
    17     -1.286931   2 C  s                32      1.122077   3 C  s         
 
 Vector  105  Occ=0.000000D+00  E= 2.191517D+01
              MO Center= -8.8D-02, -2.0D-01, -1.1D+00, r^2= 2.0D-01
   Bfn.  Coefficient  Atom+Function         Bfn.  Coefficient  Atom+Function  
  ----- ------------  ---------------      ----- ------------  ---------------
    48      3.325469   4 O  s                49     -3.230505   4 O  s         
    50      2.600879   4 O  s                47     -1.742452   4 O  s         
    51     -1.668530   4 O  s                30     -0.602094   2 C  pz        
    21      0.442180   2 C  s                60     -0.258157   4 O  pz        
    36      0.245417   3 C  s                28     -0.240263   2 C  px        
 
 Vector  106  Occ=0.000000D+00  E= 4.071984D+01
              MO Center= -2.6D+00,  7.6D-01, -1.1D-01, r^2= 8.1D-02
   Bfn.  Coefficient  Atom+Function         Bfn.  Coefficient  Atom+Function  
  ----- ------------  ---------------      ----- ------------  ---------------
    69      2.493019   5 Cl py               72     -2.227274   5 Cl py        
    68      0.767247   5 Cl px               75     -0.752526   5 Cl py        
    71     -0.685467   5 Cl px               70     -0.498970   5 Cl pz        
    73      0.445781   5 Cl pz               78      0.336283   5 Cl py        
    74     -0.231562   5 Cl px               76      0.150625   5 Cl pz        
 
 Vector  107  Occ=0.000000D+00  E= 4.073287D+01
              MO Center= -2.6D+00,  7.6D-01, -1.1D-01, r^2= 1.1D-01
   Bfn.  Coefficient  Atom+Function         Bfn.  Coefficient  Atom+Function  
  ----- ------------  ---------------      ----- ------------  ---------------
    68      2.182610   5 Cl px               71     -1.948791   5 Cl px        
    70     -1.206694   5 Cl pz               73      1.077799   5 Cl pz        
    69     -0.913297   5 Cl py               72      0.815530   5 Cl py        
    74     -0.664985   5 Cl px               76      0.365907   5 Cl pz        
    77      0.306890   5 Cl px               75      0.277919   5 Cl py        
 
 Vector  108  Occ=0.000000D+00  E= 4.074064D+01
              MO Center= -2.6D+00,  7.6D-01, -1.1D-01, r^2= 1.7D-01
   Bfn.  Coefficient  Atom+Function         Bfn.  Coefficient  Atom+Function  
  ----- ------------  ---------------      ----- ------------  ---------------
    70      2.309028   5 Cl pz               73     -2.061074   5 Cl pz        
    68      1.307390   5 Cl px               71     -1.166608   5 Cl px        
    76     -0.706824   5 Cl pz               74     -0.402263   5 Cl px        
    79      0.332845   5 Cl pz               77      0.191993   5 Cl px        
     6     -0.154362   1 C  s                96      0.143382   8 Cl px        
 
 Vector  109  Occ=0.000000D+00  E= 4.075578D+01
              MO Center=  2.6D+00, -9.2D-01, -2.7D-01, r^2= 8.2D-02
   Bfn.  Coefficient  Atom+Function         Bfn.  Coefficient  Atom+Function  
  ----- ------------  ---------------      ----- ------------  ---------------
    97      2.356258   8 Cl py              100     -2.105054   8 Cl py        
    98     -0.897206   8 Cl pz               96      0.834172   8 Cl px        
   101      0.801555   8 Cl pz               99     -0.745240   8 Cl px        
   103     -0.711454   8 Cl py              106      0.318347   8 Cl py        
   104      0.270892   8 Cl pz              102     -0.251849   8 Cl px        
 
 Vector  110  Occ=0.000000D+00  E= 4.076291D+01
              MO Center=  2.6D+00, -9.2D-01, -2.7D-01, r^2= 1.2D-01
   Bfn.  Coefficient  Atom+Function         Bfn.  Coefficient  Atom+Function  
  ----- ------------  ---------------      ----- ------------  ---------------
    98      2.130171   8 Cl pz              101     -1.902619   8 Cl pz        
    96      1.562679   8 Cl px               99     -1.395821   8 Cl px        
   104     -0.645687   8 Cl pz              102     -0.473291   8 Cl px        
   107      0.293747   8 Cl pz               97      0.257518   8 Cl py        
   100     -0.229982   8 Cl py              105      0.214414   8 Cl px        
 
 Vector  111  Occ=0.000000D+00  E= 4.077332D+01
              MO Center=  2.6D+00, -9.2D-01, -2.7D-01, r^2= 1.5D-01
   Bfn.  Coefficient  Atom+Function         Bfn.  Coefficient  Atom+Function  
  ----- ------------  ---------------      ----- ------------  ---------------
    96      1.974365   8 Cl px               99     -1.762248   8 Cl px        
    98     -1.309567   8 Cl pz               97     -1.198352   8 Cl py        
   101      1.168798   8 Cl pz              100      1.069586   8 Cl py        
   102     -0.604721   8 Cl px              104      0.401461   8 Cl pz        
   103      0.367104   8 Cl py              105      0.283919   8 Cl px        
 
 Vector  112  Occ=0.000000D+00  E= 6.247014D+01
              MO Center=  2.5D-02,  1.8D-01,  6.3D-01, r^2= 1.3D+00
   Bfn.  Coefficient  Atom+Function         Bfn.  Coefficient  Atom+Function  
  ----- ------------  ---------------      ----- ------------  ---------------
     2      1.766666   1 C  s                17      1.680137   2 C  s         
    32      1.648876   3 C  s                 3     -1.344903   1 C  s         
    18     -1.278274   2 C  s                33     -1.254228   3 C  s         
     1     -1.045318   1 C  s                16     -0.994773   2 C  s         
    31     -0.976042   3 C  s                 4      0.889393   1 C  s         
 
 Vector  113  Occ=0.000000D+00  E= 6.259627D+01
              MO Center= -2.9D-01,  2.9D-01,  8.3D-01, r^2= 1.5D+00
   Bfn.  Coefficient  Atom+Function         Bfn.  Coefficient  Atom+Function  
  ----- ------------  ---------------      ----- ------------  ---------------
     2      2.318615   1 C  s                 3     -1.777024   1 C  s         
    32     -1.632822   3 C  s                 1     -1.367614   1 C  s         
    33      1.251989   3 C  s                 4      1.226813   1 C  s         
     6      1.181059   1 C  s                 5     -1.105260   1 C  s         
    31      0.963263   3 C  s                34     -0.859287   3 C  s         
 
 Vector  114  Occ=0.000000D+00  E= 6.265206D+01
              MO Center=  5.1D-01,  1.9D-02,  3.9D-01, r^2= 6.7D-01
   Bfn.  Coefficient  Atom+Function         Bfn.  Coefficient  Atom+Function  
  ----- ------------  ---------------      ----- ------------  ---------------
    17      2.279484   2 C  s                32     -1.825949   3 C  s         
    18     -1.746372   2 C  s                33      1.400673   3 C  s         
    16     -1.344256   2 C  s                19      1.209724   2 C  s         
    20     -1.092699   2 C  s                31      1.076233   3 C  s         
    21      1.067028   2 C  s                36     -0.991187   3 C  s         
 
 Vector  115  Occ=0.000000D+00  E= 1.178554D+02
              MO Center= -8.9D-02, -2.0D-01, -1.1D+00, r^2= 4.5D-02
   Bfn.  Coefficient  Atom+Function         Bfn.  Coefficient  Atom+Function  
  ----- ------------  ---------------      ----- ------------  ---------------
    47      2.970559   4 O  s                48     -2.275856   4 O  s         
    46     -1.756222   4 O  s                49      1.440823   4 O  s         
    50     -1.095345   4 O  s                51      0.705575   4 O  s         
    30      0.257599   2 C  pz               21     -0.190961   2 C  s         
    60      0.109489   4 O  pz               36     -0.108087   3 C  s         
 
 Vector  116  Occ=0.000000D+00  E= 1.230154D+02
              MO Center= -2.5D+00,  7.0D-01, -1.1D-01, r^2= 1.0D+00
   Bfn.  Coefficient  Atom+Function         Bfn.  Coefficient  Atom+Function  
  ----- ------------  ---------------      ----- ------------  ---------------
    63      2.225405   5 Cl s                64     -1.689623   5 Cl s         
    62     -1.581181   5 Cl s                65      1.140100   5 Cl s         
    66     -0.520974   5 Cl s                91      0.416215   8 Cl s         
    67      0.373657   5 Cl s                92     -0.315484   8 Cl s         
    90     -0.295791   8 Cl s                 6     -0.221038   1 C  s         
 
 Vector  117  Occ=0.000000D+00  E= 1.230605D+02
              MO Center=  2.4D+00, -8.6D-01, -2.6D-01, r^2= 1.0D+00
   Bfn.  Coefficient  Atom+Function         Bfn.  Coefficient  Atom+Function  
  ----- ------------  ---------------      ----- ------------  ---------------
    91      2.225604   8 Cl s                92     -1.690540   8 Cl s         
    90     -1.581231   8 Cl s                93      1.141840   8 Cl s         
    94     -0.525026   8 Cl s                63     -0.416623   5 Cl s         
    95      0.385629   8 Cl s                64      0.316995   5 Cl s         
    62      0.295935   5 Cl s                65     -0.214853   5 Cl s         
 
 Vector  118  Occ=0.000000D+00  E= 8.995658D+02
              MO Center= -2.4D+00,  6.9D-01, -1.2D-01, r^2= 1.3D+00
   Bfn.  Coefficient  Atom+Function         Bfn.  Coefficient  Atom+Function  
  ----- ------------  ---------------      ----- ------------  ---------------
    62      2.290916   5 Cl s                61     -1.703833   5 Cl s         
    63     -1.287751   5 Cl s                64      0.685563   5 Cl s         
    90      0.489180   8 Cl s                65     -0.442476   5 Cl s         
    89     -0.363848   8 Cl s                91     -0.274912   8 Cl s         
    66      0.201441   5 Cl s                92      0.146142   8 Cl s         
 
 Vector  119  Occ=0.000000D+00  E= 8.996129D+02
              MO Center=  2.4D+00, -8.5D-01, -2.6D-01, r^2= 1.3D+00
   Bfn.  Coefficient  Atom+Function         Bfn.  Coefficient  Atom+Function  
  ----- ------------  ---------------      ----- ------------  ---------------
    90      2.290986   8 Cl s                89     -1.703844   8 Cl s         
    91     -1.287882   8 Cl s                92      0.685958   8 Cl s         
    62     -0.489290   5 Cl s                93     -0.443191   8 Cl s         
    61      0.363865   5 Cl s                63      0.275118   5 Cl s         
    94      0.203092   8 Cl s                95     -0.149693   8 Cl s         
 

   alpha - beta orbital overlaps 
   ----------------------------- 


   alpha      1      2      3      4      5      6      7      8      9     10
    beta      1      2      3      4      5      6      7      8      9     10
 overlap   1.000  1.000  1.000  1.000  1.000  1.000  1.000  1.000  1.000  1.000


   alpha     11     12     13     14     15     16     17     18     19     20
    beta     11     12     13     14     15     16     17     18     19     20
 overlap   1.000  1.000  0.995  0.995  1.000  0.999  0.998  0.997  0.999  0.998


   alpha     21     22     23     24     25     26     27     28     29     30
    beta     21     22     23     24     25     26     27     28     29     30
 overlap   0.999  0.989  0.995  0.996  0.997  0.999  0.990  0.999  0.999  1.000


   alpha     31     32     33     34     35     36     37     38     39     40
    beta     31     32     34     33     36     35     37     38     39     40
 overlap   1.000  0.999  0.984  0.997  0.990  0.986  0.999  0.999  0.995  0.999


   alpha     41     42     43     44     45     46     47     48     49     50
    beta     41     42     43     44     45     46     47     48     49     50
 overlap   0.995  0.996  0.992  0.977  0.887  0.875  0.971  0.994  0.897  0.907


   alpha     51     52     53     54     55     56     57     58     59     60
    beta     51     52     53     54     55     56     57     58     59     60
 overlap   0.995  0.970  0.968  0.987  0.997  0.995  0.984  0.973  0.980  0.969


   alpha     61     62     63     64     65     66     67     68     69     70
    beta     61     62     63     64     65     66     67     68     69     70
 overlap   0.997  0.994  0.995  0.995  0.998  0.996  0.993  0.999  1.000  1.000


   alpha     71     72     73     74     75     76     77     78     79     80
    beta     71     72     73     74     75     76     77     78     79     80
 overlap   1.000  1.000  1.000  0.951  0.974  0.959  0.998  0.999  0.990  1.000


   alpha     81     82     83     84     85     86     87     88     89     90
    beta     81     82     83     84     85     86     87     88     89     90
 overlap   1.000  1.000  1.000  1.000  0.998  0.998  0.997  0.950  0.911  0.946


   alpha     91     92     93     94     95     96     97     98     99    100
    beta     91     92     93     94     95     96     97     98     99    100
 overlap   0.984  0.982  0.997  1.000  1.000  0.999  0.999  1.000  1.000  1.000


   alpha    101    102    103    104    105    106    107    108    109    110
    beta    101    102    103    104    105    106    107    108    109    110
 overlap   1.000  0.997  0.989  0.988  1.000  1.000  1.000  1.000  1.000  1.000


   alpha    111    112    113    114    115    116    117    118    119
    beta    111    112    113    114    115    116    117    118    119
 overlap   1.000  0.999  0.998  0.998  1.000  1.000  1.000  1.000  1.000

     --------------------------
     Expectation value of S2:  
     --------------------------
      <S2> =      0.7527 (Exact =     0.7500)
 

 center of mass
 --------------
 x =   0.00463435 y =  -0.02376092 z =  -0.07033834

 moments of inertia (a.u.)
 ------------------
         390.808650250735         580.761885086887          41.999259676401
         580.761885086887        2081.106825469759         -57.160496348040
          41.999259676401         -57.160496348040        2098.385624088060
 
     Multipole analysis of the density
     ---------------------------------
 
     L   x y z        total         alpha         beta         nuclear
     -   - - -        -----         -----         ----         -------
     0   0 0 0     -0.000000    -33.000000    -32.000000     65.000000
 
     1   1 0 0     -0.642128     -0.371895     -0.270233      0.000000
     1   0 1 0      0.440050      0.161765      0.278285     -0.000000
     1   0 0 1      0.893932      0.335429      0.558503      0.000000
 
     2   2 0 0    -42.540110   -491.379619   -489.487573    938.327082
     2   1 1 0      2.369258    142.390132    142.784068   -282.804942
     2   1 0 1      2.305948      9.804938      9.802008    -17.300998
     2   0 2 0    -38.157288    -72.963906    -70.757079    105.563698
     2   0 1 1      0.043306    -15.766110    -15.453270     31.262686
     2   0 0 2    -34.909334    -75.800713    -72.490855    113.382234
 

 Task  times  cpu:        6.1s     wall:        6.5s
 
 
                                NWChem Input Module
                                -------------------
 
 
 Summary of allocated global arrays
-----------------------------------
  No active global arrays



                         GA Statistics for process    0
                         ------------------------------

       create   destroy   get      put      acc     scatter   gather  read&inc
calls:  348      348     3.53e+04 2936     2.73e+04    0        0      481     
number of processes/call 1.32e+01 5.98e+01 9.57e+00 0.00e+00 0.00e+00
bytes total:             1.05e+08 1.27e+07 5.81e+07 0.00e+00 0.00e+00 3.85e+03
bytes remote:            8.44e+07 6.72e+06 4.88e+07 0.00e+00 0.00e+00 0.00e+00
Max memory consumed for GA by this process: 1038088 bytes
 
 
 
                                     CITATION
                                     --------
                Please cite the following reference when publishing
                           results obtained with NWChem:
 
          E. Apr, E. J. Bylaska, W. A. de Jong, N. Govind, K. Kowalski,
       T. P. Straatsma, M. Valiev, H. J. J. van Dam, Y. Alexeev, J. Anchell,
       V. Anisimov, F. W. Aquino, R. Atta-Fynn, J. Autschbach, N. P. Bauman,
     J. C. Becca, D. E. Bernholdt, K. Bhaskaran-Nair, S. Bogatko, P. Borowski,
        J. Boschen, J. Brabec, A. Bruner, E. Caut, Y. Chen, G. N. Chuev,
      C. J. Cramer, J. Daily, M. J. O. Deegan, T. H. Dunning Jr., M. Dupuis,
   K. G. Dyall, G. I. Fann, S. A. Fischer, A. Fonari, H. Frchtl, L. Gagliardi,
      J. Garza, N. Gawande, S. Ghosh, K. Glaesemann, A. W. Gtz, J. Hammond,
       V. Helms, E. D. Hermes, K. Hirao, S. Hirata, M. Jacquelin, L. Jensen,
   B. G. Johnson, H. Jnsson, R. A. Kendall, M. Klemm, R. Kobayashi, V. Konkov,
      S. Krishnamoorthy, M. Krishnan, Z. Lin, R. D. Lins, R. J. Littlefield,
      A. J. Logsdail, K. Lopata, W. Ma, A. V. Marenich, J. Martin del Campo,
   D. Mejia-Rodriguez, J. E. Moore, J. M. Mullin, T. Nakajima, D. R. Nascimento,
    J. A. Nichols, P. J. Nichols, J. Nieplocha, A. Otero-de-la-Roza, B. Palmer,
    A. Panyala, T. Pirojsirikul, B. Peng, R. Peverati, J. Pittner, L. Pollack,
   R. M. Richard, P. Sadayappan, G. C. Schatz, W. A. Shelton, D. W. Silverstein,
   D. M. A. Smith, T. A. Soares, D. Song, M. Swart, H. L. Taylor, G. S. Thomas,
            V. Tipparaju, D. G. Truhlar, K. Tsemekhman, T. Van Voorhis,
     . Vzquez-Mayagoitia, P. Verma, O. Villa, A. Vishnu, K. D. Vogiatzis,
        D. Wang, J. H. Weare, M. J. Williamson, T. L. Windus, K. Woliski,
        A. T. Wong, Q. Wu, C. Yang, Q. Yu, M. Zacharias, Z. Zhang, Y. Zhao,
                                and R. J. Harrison
                        "NWChem: Past, present, and future
                         J. Chem. Phys. 152, 184102 (2020)
                               doi:10.1063/5.0004997
 
                                      AUTHORS
                                      -------
     E. Apra, E. J. Bylaska, N. Govind, K. Kowalski, M. Valiev, W. A. de Jong,
      T. P. Straatsma, H. J. J. van Dam, D. Wang, T. L. Windus, N. P. Bauman,
       A. Panyala, J. Hammond, J. Autschbach, K. Bhaskaran-Nair, J. Brabec,
    K. Lopata, S. A. Fischer, S. Krishnamoorthy, M. Jacquelin, W. Ma, M. Klemm,
       O. Villa, Y. Chen, V. Anisimov, F. Aquino, S. Hirata, M. T. Hackler,
           Eric Hermes, L. Jensen, J. E. Moore, J. C. Becca, V. Konjkov,
            D. Mejia-Rodriguez, T. Risthaus, M. Malagoli, A. Marenich,
   A. Otero-de-la-Roza, J. Mullin, P. Nichols, R. Peverati, J. Pittner, Y. Zhao,
        P.-D. Fan, A. Fonari, M. J. Williamson, R. J. Harrison, J. R. Rehr,
      M. Dupuis, D. Silverstein, D. M. A. Smith, J. Nieplocha, V. Tipparaju,
      M. Krishnan, B. E. Van Kuiken, A. Vazquez-Mayagoitia, M. Swart, Q. Wu,
   T. Van Voorhis, A. A. Auer, M. Nooijen, L. D. Crosby, E. Brown, G. Cisneros,
     G. I. Fann, H. Fruchtl, J. Garza, K. Hirao, R. A. Kendall, J. A. Nichols,
       K. Tsemekhman, K. Wolinski, J. Anchell, D. E. Bernholdt, P. Borowski,
       T. Clark, D. Clerc, H. Dachsel, M. J. O. Deegan, K. Dyall, D. Elwood,
      E. Glendening, M. Gutowski, A. C. Hess, J. Jaffe, B. G. Johnson, J. Ju,
        R. Kobayashi, R. Kutteh, Z. Lin, R. Littlefield, X. Long, B. Meng,
      T. Nakajima, S. Niu, L. Pollack, M. Rosing, K. Glaesemann, G. Sandrone,
      M. Stave, H. Taylor, G. Thomas, J. H. van Lenthe, A. T. Wong, Z. Zhang.

 Total times  cpu:        6.1s     wall:        6.6s
