 
             Northwest Computational Chemistry Package (NWChem) 7.0.0
             --------------------------------------------------------
 
 
                    Environmental Molecular Sciences Laboratory
                       Pacific Northwest National Laboratory
                                Richland, WA 99352
 
                              Copyright (c) 1994-2020
                       Pacific Northwest National Laboratory
                            Battelle Memorial Institute
 
             NWChem is an open-source computational chemistry package
                        distributed under the terms of the
                      Educational Community License (ECL) 2.0
             A copy of the license is included with this distribution
                              in the LICENSE.TXT file
 
                                  ACKNOWLEDGMENT
                                  --------------

            This software and its documentation were developed at the
            EMSL at Pacific Northwest National Laboratory, a multiprogram
            national laboratory, operated for the U.S. Department of Energy
            by Battelle under Contract Number DE-AC05-76RL01830. Support
            for this work was provided by the Department of Energy Office
            of Biological and Environmental Research, Office of Basic
            Energy Sciences, and the Office of Advanced Scientific Computing.


                                NWChem Input Module
                                -------------------
 
 
 Summary of "ao basis" -> "" (spherical)
 ------------------------------------------------------------------------------
       Tag                 Description            Shells   Functions and Types
 ---------------- ------------------------------  ------  ---------------------
 *                        ahlrichs_vtz                on all atoms 



 Scaling coordinates for geometry "geometry" by  1.889725989
 (inverse scale =  0.529177249)

 
 
                             Geometry "geometry" -> ""
                             -------------------------
 
 Output coordinates in angstroms (scale by  1.889725989 to convert to a.u.)
 
  No.       Tag          Charge          X              Y              Z
 ---- ---------------- ---------- -------------- -------------- --------------
    1 C                    6.0000    -0.00949886     0.10962454    -0.02487650
    2 C                    6.0000     0.09858448    -0.92819800    -1.09219515
    3 O                    8.0000     0.18731219    -2.19537741    -0.88393372
    4 H                    1.0000     0.10625835    -0.62513527    -2.14140898
    5 Cl                  17.0000    -1.59681561     0.96317072    -0.40762476
    6 Cl                  17.0000    -0.00781754    -0.63190099     1.65610757
    7 Cl                  17.0000     1.46819341     1.17366431    -0.31734375
    8 H                    1.0000     0.18020622    -2.48428363     0.08594459
 
      Atomic Mass 
      ----------- 
 
      C                 12.000000
      O                 15.994910
      H                  1.007825
      Cl                34.968850
 

 Effective nuclear repulsion energy (a.u.)     435.1837585382

            Nuclear Dipole moment (a.u.) 
            ----------------------------
        X                 Y               Z
 ---------------- ---------------- ----------------
    -0.0000000000    -0.0000000000     0.0000000000
 
 
            XYZ format geometry
            -------------------
     8
 geometry
 C                    -0.00949886     0.10962454    -0.02487650
 C                     0.09858448    -0.92819800    -1.09219515
 O                     0.18731219    -2.19537741    -0.88393372
 H                     0.10625835    -0.62513527    -2.14140898
 Cl                   -1.59681561     0.96317072    -0.40762476
 Cl                   -0.00781754    -0.63190099     1.65610757
 Cl                    1.46819341     1.17366431    -0.31734375
 H                     0.18020622    -2.48428363     0.08594459
 
 ==============================================================================
                                internuclear distances
 ------------------------------------------------------------------------------
       center one      |      center two      | atomic units |  angstroms
 ------------------------------------------------------------------------------
    2 C                |   1 C                |     2.82065  |     1.49262
    3 O                |   2 C                |     2.43253  |     1.28724
    4 H                |   2 C                |     2.06383  |     1.09213
    5 Cl               |   1 C                |     3.48172  |     1.84245
    6 Cl               |   1 C                |     3.47194  |     1.83727
    7 Cl               |   1 C                |     3.48514  |     1.84426
    8 H                |   3 O                |     1.91244  |     1.01202
 ------------------------------------------------------------------------------
                         number of included internuclear distances:          7
 ==============================================================================



 ==============================================================================
                                 internuclear angles
 ------------------------------------------------------------------------------
        center 1       |       center 2       |       center 3       |  degrees
 ------------------------------------------------------------------------------
    2 C                |   1 C                |   5 Cl               |   103.65
    2 C                |   1 C                |   6 Cl               |   111.93
    2 C                |   1 C                |   7 Cl               |   103.28
    5 Cl               |   1 C                |   6 Cl               |   112.20
    5 Cl               |   1 C                |   7 Cl               |   112.96
    6 Cl               |   1 C                |   7 Cl               |   112.16
    1 C                |   2 C                |   3 O                |   125.01
    1 C                |   2 C                |   4 H                |   119.64
    3 O                |   2 C                |   4 H                |   115.35
    2 C                |   3 O                |   8 H                |   115.82
 ------------------------------------------------------------------------------
                            number of included internuclear angles:         10
 ==============================================================================



                              Aldehyde and Ketone set
                              -----------------------
 
                                 NWChem DFT Module
                                 -----------------
 
 
                              Aldehyde and Ketone set
 
 
                      Basis "ao basis" -> "ao basis" (spherical)
                      -----
  C (Carbon)
  ----------
            Exponent  Coefficients 
       -------------- ---------------------------------------------------------
  1 S  8.50603840E+03  0.000534
  1 S  1.27573290E+03  0.004125
  1 S  2.90311870E+02  0.021171
  1 S  8.20562000E+01  0.082418
  1 S  2.64796410E+01  0.240129
 
  2 S  9.24145850E+00  1.000000
 
  3 S  3.36435300E+00  1.000000
 
  4 S  8.71741640E-01  1.000000
 
  5 S  3.63523520E-01  1.000000
 
  6 S  1.28731350E-01  1.000000
 
  7 P  3.47094960E+01  0.005330
  7 P  7.95908830E+00  0.035866
  7 P  2.37869720E+00  0.142003
  7 P  8.15400650E-01  0.342031
 
  8 P  2.89537850E-01  1.000000
 
  9 P  1.00847540E-01  1.000000
 
  O (Oxygen)
  ----------
            Exponent  Coefficients 
       -------------- ---------------------------------------------------------
  1 S  1.59026475E+04  0.000515
  1 S  2.38495378E+03  0.003982
  1 S  5.42719572E+02  0.020477
  1 S  1.53404079E+02  0.080262
  1 S  4.95457161E+01  0.237668
 
  2 S  1.73396499E+01  1.000000
 
  3 S  6.33033553E+00  1.000000
 
  4 S  1.69958822E+00  1.000000
 
  5 S  6.89544913E-01  1.000000
 
  6 S  2.39360282E-01  1.000000
 
  7 P  6.32705240E+01  0.006071
  7 P  1.46233123E+01  0.041948
  7 P  4.44895180E+00  0.161569
  7 P  1.52815132E+00  0.356828
 
  8 P  5.29973159E-01  1.000000
 
  9 P  1.75094460E-01  1.000000
 
  H (Hydrogen)
  ------------
            Exponent  Coefficients 
       -------------- ---------------------------------------------------------
  1 S  3.40613410E+01  0.006025
  1 S  5.12357460E+00  0.045021
  1 S  1.16466260E+00  0.201897
 
  2 S  3.27230410E-01  1.000000
 
  3 S  1.03072410E-01  1.000000
 
  Cl (Chlorine)
  -------------
            Exponent  Coefficients 
       -------------- ---------------------------------------------------------
  1 S  1.17805790E+05  0.000242
  1 S  1.76602650E+04  0.001874
  1 S  4.01859730E+03  0.009736
  1 S  1.13622310E+03  0.039495
  1 S  3.68120620E+02  0.127972
 
  2 S  1.30861540E+02  1.000000
 
  3 S  5.04790110E+01  0.428741
  3 S  2.09168050E+01  0.196685
 
  4 S  6.35313880E+00  1.000000
 
  5 S  2.49480140E+00  1.000000
 
  6 S  5.43359480E-01  1.000000
 
  7 S  1.94343660E-01  1.000000
 
  8 P  6.81068790E+02  0.002366
  8 P  1.61113590E+02  0.018941
  8 P  5.13866370E+01  0.087845
  8 P  1.89585120E+01  0.257074
  8 P  3.00351580E+00  0.371524
 
  9 P  7.45652930E+00  1.000000
 
 10 P  1.06093610E+00  1.000000
 
 11 P  3.94520230E-01  1.000000
 
 12 P  1.33232790E-01  1.000000
 


 Summary of "ao basis" -> "ao basis" (spherical)
 ------------------------------------------------------------------------------
       Tag                 Description            Shells   Functions and Types
 ---------------- ------------------------------  ------  ---------------------
 C                        ahlrichs vtz               9       15   6s3p
 O                        ahlrichs vtz               9       15   6s3p
 H                        ahlrichs vtz               3        3   3s
 Cl                       ahlrichs vtz              12       22   7s5p




 Summary of "ao basis" -> "ao basis" (spherical)
 ------------------------------------------------------------------------------
       Tag                 Description            Shells   Functions and Types
 ---------------- ------------------------------  ------  ---------------------
 C                        ahlrichs vtz               9       15   6s3p
 O                        ahlrichs vtz               9       15   6s3p
 H                        ahlrichs vtz               3        3   3s
 Cl                       ahlrichs vtz              12       22   7s5p


  Caching 1-el integrals 
 
            General Information
            -------------------
          SCF calculation type: DFT
          Wavefunction type:  spin polarized.
          No. of atoms     :     8
          No. of electrons :    73
           Alpha electrons :    37
            Beta electrons :    36
          Charge           :     0
          Spin multiplicity:     2
          Use of symmetry is: off; symmetry adaption is: off
          Maximum number of iterations: ***
          This is a Direct SCF calculation.
          AO basis - number of functions:   117
                     number of shells:    69
          Convergence on energy requested:  1.00D-08
          Convergence on density requested:  1.00D-07
          Convergence on gradient requested:  1.00D-06
 
              XC Information
              --------------
                        PBE96 Method XC Functional
          PerdewBurkeErnzerhof Exchange Functional  1.000          
            Perdew 1991 LDA Correlation Functional  1.000 local    
           PerdewBurkeErnz. Correlation Functional  1.000 non-local
 
             Grid Information
             ----------------
          Grid used for XC integration:  fine      
          Radial quadrature: Mura-Knowles        
          Angular quadrature: Lebedev. 
          Tag              B.-S. Rad. Rad. Pts. Rad. Cut. Ang. Pts.
          ---              ---------- --------- --------- ---------
          C                   0.70       70          10.0       590
          O                   0.60       70          10.0       590
          H                   0.35       60          11.0       590
          Cl                  1.00      123          11.0       770
          Grid pruning is: on 
          Number of quadrature shells:   699
          Spatial weights used:  Erf1
 
          Convergence Information
          -----------------------
          Convergence aids based upon iterative change in 
          total energy or number of iterations. 
          Levelshifting, if invoked, occurs when the 
          HOMO/LUMO gap drops below (HL_TOL):  1.00D-02
          DIIS, if invoked, will attempt to extrapolate 
          using up to (NFOCK): 10 stored Fock matrices.

                    Damping( 0%)  Levelshifting(0.5)       DIIS
                  --------------- ------------------- ---------------
          dE  on:    start            ASAP                start   
          dE off:    2 iters        *** iters           *** iters 

 
      Screening Tolerance Information
      -------------------------------
          Density screening/tol_rho:  1.00D-12
          AO Gaussian exp screening on grid/accAOfunc:  18
          CD Gaussian exp screening on grid/accCDfunc:  20
          XC Gaussian exp screening on grid/accXCfunc:  20
          Schwarz screening/accCoul:  1.00D-12

      Dispersion Parameters
      ---------------------

           DFT-D3BJ Model   
          s6 scale factor  :        1.000000000000
          s8 scale factor  :        0.787500000000
          a1 parameter     :        0.428900000000
          a2 parameter     :        4.440700000000
              vdW contrib  :       -0.009592683126


 Forcing the number of linearly dependent vectors to be  0
 
      Superposition of Atomic Density Guess
      -------------------------------------
 
 Sum of atomic energies:       -1529.56946856
   Time after variat. SCF:      0.2
   Time prior to 1st pass:      0.2

 Grid_pts file          = ./11_Cl3CCHOH.gridpts.00
 Record size in doubles =  12289        No. of grid_pts per rec  =   3070
 Max. records in memory =     14        Max. recs in file   =  67550051


           Memory utilization after 1st SCF pass: 
           Heap Space remaining (MW):        0.00                  96
          Stack Space remaining (MW):      288.36           288357108

   convergence    iter        energy       DeltaE   RMS-Dens  Diis-err    time
 ---------------- ----- ----------------- --------- --------- ---------  ------
 d= 0,ls=0.0,diis     1  -1533.3526220804 -1.97D+03  1.17D-02  1.30D+01     0.5
                                                     1.07D-02  1.22D+01
 d= 0,ls=0.0,diis     2  -1532.3623610269  9.90D-01  2.29D-02  1.69D-01     0.8
                                                     6.90D-03  1.75D-01
 d= 0,ls=0.0,diis     3  -1531.7698887662  5.92D-01  2.24D-02  1.22D+00     1.2
                                                     5.32D-03  1.29D+00
 d= 0,ls=0.0,diis     4  -1532.4225475776 -6.53D-01  1.56D-03  2.46D-02     1.5
                                                     1.33D-03  2.73D-02
 d= 0,ls=0.0,diis     5  -1532.4371254743 -1.46D-02  5.11D-04  1.90D-03     1.8
                                                     3.85D-04  2.11D-03
 d= 0,ls=0.0,diis     6  -1532.4376330389 -5.08D-04  2.90D-04  8.87D-04     2.2
                                                     1.60D-04  8.19D-04
 d= 0,ls=0.0,diis     7  -1532.4379406543 -3.08D-04  8.21D-05  1.53D-04     2.5
                                                     7.82D-05  1.56D-04
 d= 0,ls=0.0,diis     8  -1532.4380077504 -6.71D-05  3.31D-05  8.86D-06     2.9
                                                     2.41D-05  8.90D-06
 d= 0,ls=0.0,diis     9  -1532.4380126532 -4.90D-06  7.42D-06  8.26D-07     3.3
                                                     6.44D-06  1.11D-06
 d= 0,ls=0.0,diis    10  -1532.4380131699 -5.17D-07  2.24D-06  1.91D-08     3.8
                                                     2.36D-06  3.69D-08
 d= 0,ls=0.0,diis    11  -1532.4380131897 -1.98D-08  8.76D-07  4.75D-09     4.2
                                                     9.11D-07  5.70D-09
 d= 0,ls=0.0,diis    12  -1532.4380131923 -2.53D-09  3.91D-07  2.11D-09     4.7
                                                     3.42D-07  1.91D-09
 d= 0,ls=0.0,diis    13  -1532.4380131934 -1.12D-09  8.42D-08  2.90D-11     5.1
                                                     5.58D-08  2.17D-11


         Total DFT energy =    -1532.438013193384
      One electron energy =    -2979.067413288371
           Coulomb energy =     1115.530291859777
          Exchange energy =     -101.337048661486
       Correlation energy =       -2.738008958343
 Nuclear repulsion energy =      435.183758538165

    Dispersion correction =       -0.009592683126

 Numeric. integr. density =       73.000002003057

     Total iterative time =      4.9s


 
                    DFT Final Alpha Molecular Orbital Analysis
                    ------------------------------------------
 
 Vector    1  Occ=1.000000D+00  E=-1.007260D+02
              MO Center= -7.8D-03, -6.3D-01,  1.7D+00, r^2= 3.1D-03
   Bfn.  Coefficient  Atom+Function         Bfn.  Coefficient  Atom+Function  
  ----- ------------  ---------------      ----- ------------  ---------------
    73      0.598195  6 Cl s                 72      0.326071  6 Cl s          
    71      0.184384  6 Cl s          
 
 Vector    2  Occ=1.000000D+00  E=-1.007001D+02
              MO Center= -1.6D+00,  9.6D-01, -4.1D-01, r^2= 3.1D-03
   Bfn.  Coefficient  Atom+Function         Bfn.  Coefficient  Atom+Function  
  ----- ------------  ---------------      ----- ------------  ---------------
    51      0.598199  5 Cl s                 50      0.326067  5 Cl s          
    49      0.184384  5 Cl s          
 
 Vector    3  Occ=1.000000D+00  E=-1.006995D+02
              MO Center=  1.5D+00,  1.2D+00, -3.2D-01, r^2= 3.1D-03
   Bfn.  Coefficient  Atom+Function         Bfn.  Coefficient  Atom+Function  
  ----- ------------  ---------------      ----- ------------  ---------------
    95      0.598199  7 Cl s                 94      0.326067  7 Cl s          
    93      0.184384  7 Cl s          
 
 Vector    4  Occ=1.000000D+00  E=-1.883866D+01
              MO Center=  1.9D-01, -2.2D+00, -8.8D-01, r^2= 1.5D-02
   Bfn.  Coefficient  Atom+Function         Bfn.  Coefficient  Atom+Function  
  ----- ------------  ---------------      ----- ------------  ---------------
    32      0.424516  3 O  s                 33      0.366289  3 O  s          
    31      0.299497  3 O  s                 34      0.055432  3 O  s          
 
 Vector    5  Occ=1.000000D+00  E=-1.010122D+01
              MO Center= -9.5D-03,  1.1D-01, -2.5D-02, r^2= 2.8D-02
   Bfn.  Coefficient  Atom+Function         Bfn.  Coefficient  Atom+Function  
  ----- ------------  ---------------      ----- ------------  ---------------
     2      0.424616  1 C  s                  3      0.359552  1 C  s          
     1      0.308932  1 C  s                  4      0.056344  1 C  s          
 
 Vector    6  Occ=1.000000D+00  E=-9.985549D+00
              MO Center=  9.9D-02, -9.3D-01, -1.1D+00, r^2= 2.8D-02
   Bfn.  Coefficient  Atom+Function         Bfn.  Coefficient  Atom+Function  
  ----- ------------  ---------------      ----- ------------  ---------------
    17      0.423899  2 C  s                 18      0.359756  2 C  s          
    16      0.308705  2 C  s                 19      0.057672  2 C  s          
 
 Vector    7  Occ=1.000000D+00  E=-9.230787D+00
              MO Center= -7.8D-03, -6.3D-01,  1.7D+00, r^2= 6.6D-02
   Bfn.  Coefficient  Atom+Function         Bfn.  Coefficient  Atom+Function  
  ----- ------------  ---------------      ----- ------------  ---------------
    75      0.583233  6 Cl s                 74      0.523037  6 Cl s          
    73     -0.293204  6 Cl s                 72     -0.113711  6 Cl s          
    76      0.060446  6 Cl s                 71     -0.054083  6 Cl s          
    77     -0.029082  6 Cl s          
 
 Vector    8  Occ=1.000000D+00  E=-9.205496D+00
              MO Center= -1.6D+00,  9.6D-01, -4.1D-01, r^2= 6.7D-02
   Bfn.  Coefficient  Atom+Function         Bfn.  Coefficient  Atom+Function  
  ----- ------------  ---------------      ----- ------------  ---------------
    53      0.583387  5 Cl s                 52      0.522945  5 Cl s          
    51     -0.293187  5 Cl s                 50     -0.113712  5 Cl s          
    54      0.059915  5 Cl s                 49     -0.054081  5 Cl s          
    55     -0.027452  5 Cl s          
 
 Vector    9  Occ=1.000000D+00  E=-9.204990D+00
              MO Center=  1.5D+00,  1.2D+00, -3.2D-01, r^2= 6.7D-02
   Bfn.  Coefficient  Atom+Function         Bfn.  Coefficient  Atom+Function  
  ----- ------------  ---------------      ----- ------------  ---------------
    97      0.583392  7 Cl s                 96      0.522943  7 Cl s          
    95     -0.293187  7 Cl s                 94     -0.113712  7 Cl s          
    98      0.059902  7 Cl s                 93     -0.054081  7 Cl s          
    99     -0.027410  7 Cl s          
 
 Vector   10  Occ=1.000000D+00  E=-7.058127D+00
              MO Center= -7.8D-03, -6.3D-01,  1.7D+00, r^2= 5.8D-02
   Bfn.  Coefficient  Atom+Function         Bfn.  Coefficient  Atom+Function  
  ----- ------------  ---------------      ----- ------------  ---------------
    80      0.510935  6 Cl pz                83      0.385912  6 Cl pz         
    79     -0.239543  6 Cl py                82     -0.180929  6 Cl py         
    86      0.065043  6 Cl pz                85     -0.030492  6 Cl py         
 
 Vector   11  Occ=1.000000D+00  E=-7.044675D+00
              MO Center= -7.9D-03, -6.3D-01,  1.7D+00, r^2= 5.8D-02
   Bfn.  Coefficient  Atom+Function         Bfn.  Coefficient  Atom+Function  
  ----- ------------  ---------------      ----- ------------  ---------------
    79      0.509623  6 Cl py                82      0.384755  6 Cl py         
    80      0.239040  6 Cl pz                83      0.180469  6 Cl pz         
    85      0.063795  6 Cl py                78     -0.045288  6 Cl px         
    81     -0.034192  6 Cl px                86      0.029924  6 Cl pz         
 
 Vector   12  Occ=1.000000D+00  E=-7.043578D+00
              MO Center= -7.8D-03, -6.3D-01,  1.7D+00, r^2= 5.8D-02
   Bfn.  Coefficient  Atom+Function         Bfn.  Coefficient  Atom+Function  
  ----- ------------  ---------------      ----- ------------  ---------------
    78      0.562939  6 Cl px                81      0.424990  6 Cl px         
    84      0.070322  6 Cl px                79      0.041631  6 Cl py         
    82      0.031429  6 Cl py         
 
 Vector   13  Occ=1.000000D+00  E=-7.033310D+00
              MO Center= -1.6D+00,  9.6D-01, -4.1D-01, r^2= 5.8D-02
   Bfn.  Coefficient  Atom+Function         Bfn.  Coefficient  Atom+Function  
  ----- ------------  ---------------      ----- ------------  ---------------
    56      0.491132  5 Cl px                59      0.370942  5 Cl px         
    57     -0.241357  5 Cl py                60     -0.182272  5 Cl py         
    58      0.137685  5 Cl pz                61      0.104002  5 Cl pz         
    62      0.062595  5 Cl px                63     -0.030774  5 Cl py         
 
 Vector   14  Occ=1.000000D+00  E=-7.032796D+00
              MO Center=  1.5D+00,  1.2D+00, -3.2D-01, r^2= 5.8D-02
   Bfn.  Coefficient  Atom+Function         Bfn.  Coefficient  Atom+Function  
  ----- ------------  ---------------      ----- ------------  ---------------
   100      0.461070  7 Cl px               103      0.348240  7 Cl px         
   101      0.306271  7 Cl py               104      0.231300  7 Cl py         
   102     -0.109700  7 Cl pz               105     -0.082865  7 Cl pz         
   106      0.058761  7 Cl px               107      0.039047  7 Cl py         
 
 Vector   15  Occ=1.000000D+00  E=-7.018878D+00
              MO Center= -1.6D+00,  9.6D-01, -4.1D-01, r^2= 5.8D-02
   Bfn.  Coefficient  Atom+Function         Bfn.  Coefficient  Atom+Function  
  ----- ------------  ---------------      ----- ------------  ---------------
    58      0.481398  5 Cl pz                61      0.363441  5 Cl pz         
    56     -0.227453  5 Cl px                57     -0.188223  5 Cl py         
    59     -0.171719  5 Cl px                60     -0.142105  5 Cl py         
    64      0.060250  5 Cl pz                62     -0.028474  5 Cl px         
 
 Vector   16  Occ=1.000000D+00  E=-7.018668D+00
              MO Center= -1.6D+00,  9.6D-01, -4.1D-01, r^2= 5.8D-02
   Bfn.  Coefficient  Atom+Function         Bfn.  Coefficient  Atom+Function  
  ----- ------------  ---------------      ----- ------------  ---------------
    57      0.474504  5 Cl py                60      0.358213  5 Cl py         
    58      0.261110  5 Cl pz                61      0.197126  5 Cl pz         
    56      0.159971  5 Cl px                59      0.120788  5 Cl px         
    63      0.059373  5 Cl py                64      0.032671  5 Cl pz         
 
 Vector   17  Occ=1.000000D+00  E=-7.018379D+00
              MO Center=  1.5D+00,  1.2D+00, -3.2D-01, r^2= 5.8D-02
   Bfn.  Coefficient  Atom+Function         Bfn.  Coefficient  Atom+Function  
  ----- ------------  ---------------      ----- ------------  ---------------
   102      0.496435  7 Cl pz               105      0.374793  7 Cl pz         
   100      0.220589  7 Cl px               103      0.166537  7 Cl px         
   101     -0.154272  7 Cl py               104     -0.116473  7 Cl py         
   108      0.062133  7 Cl pz               106      0.027614  7 Cl px         
 
 Vector   18  Occ=1.000000D+00  E=-7.018179D+00
              MO Center=  1.5D+00,  1.2D+00, -3.2D-01, r^2= 5.8D-02
   Bfn.  Coefficient  Atom+Function         Bfn.  Coefficient  Atom+Function  
  ----- ------------  ---------------      ----- ------------  ---------------
   101      0.448530  7 Cl py               104      0.338601  7 Cl py         
   102      0.245782  7 Cl pz               100     -0.239447  7 Cl px         
   105      0.185553  7 Cl pz               103     -0.180787  7 Cl px         
   107      0.056128  7 Cl py               108      0.030755  7 Cl pz         
   106     -0.029944  7 Cl px         
 
 Vector   19  Occ=1.000000D+00  E=-1.052236D+00
              MO Center=  1.6D-01, -1.9D+00, -7.8D-01, r^2= 5.9D-01
   Bfn.  Coefficient  Atom+Function         Bfn.  Coefficient  Atom+Function  
  ----- ------------  ---------------      ----- ------------  ---------------
    35      0.511064  3 O  s                 36      0.255814  3 O  s          
    20      0.179173  2 C  s                 33     -0.141108  3 O  s          
    32     -0.117302  3 O  s                 34      0.112214  3 O  s          
    23     -0.107219  2 C  py                38      0.094054  3 O  py         
    41      0.088478  3 O  py               115      0.072564  8 H  s          
 
 Vector   20  Occ=1.000000D+00  E=-8.780876D-01
              MO Center= -2.1D-02,  1.5D-01,  2.0D-01, r^2= 2.2D+00
   Bfn.  Coefficient  Atom+Function         Bfn.  Coefficient  Atom+Function  
  ----- ------------  ---------------      ----- ------------  ---------------
     5      0.369996  1 C  s                 76      0.298510  6 Cl s          
    54      0.241940  5 Cl s                 98      0.240255  7 Cl s          
    77      0.221684  6 Cl s                 75     -0.183667  6 Cl s          
    55      0.166313  5 Cl s                 99      0.164821  7 Cl s          
     6      0.149742  1 C  s                 53     -0.148129  5 Cl s          
 
 Vector   21  Occ=1.000000D+00  E=-7.912745D-01
              MO Center= -3.5D-02, -4.9D-02,  7.5D-01, r^2= 2.8D+00
   Bfn.  Coefficient  Atom+Function         Bfn.  Coefficient  Atom+Function  
  ----- ------------  ---------------      ----- ------------  ---------------
    76      0.493564  6 Cl s                 77      0.427230  6 Cl s          
    75     -0.304898  6 Cl s                 54     -0.253525  5 Cl s          
    98     -0.245208  7 Cl s                 55     -0.206333  5 Cl s          
    99     -0.199378  7 Cl s                 74     -0.187494  6 Cl s          
    53      0.155884  5 Cl s                 97      0.150773  7 Cl s          
 
 Vector   22  Occ=1.000000D+00  E=-7.765310D-01
              MO Center= -3.9D-02,  9.0D-01, -3.1D-01, r^2= 2.7D+00
   Bfn.  Coefficient  Atom+Function         Bfn.  Coefficient  Atom+Function  
  ----- ------------  ---------------      ----- ------------  ---------------
    98     -0.436328  7 Cl s                 54      0.431353  5 Cl s          
    99     -0.365482  7 Cl s                 55      0.361646  5 Cl s          
    97      0.268751  7 Cl s                 53     -0.265683  5 Cl s          
    96      0.164500  7 Cl s                 52     -0.162637  5 Cl s          
    10     -0.116543  1 C  px                 7     -0.103634  1 C  px         
 
 Vector   23  Occ=1.000000D+00  E=-6.811515D-01
              MO Center=  7.1D-02, -6.8D-01, -6.3D-01, r^2= 3.0D+00
   Bfn.  Coefficient  Atom+Function         Bfn.  Coefficient  Atom+Function  
  ----- ------------  ---------------      ----- ------------  ---------------
    20      0.389122  2 C  s                 98     -0.211263  7 Cl s          
    54     -0.209309  5 Cl s                 99     -0.192610  7 Cl s          
    55     -0.190701  5 Cl s                  5      0.179348  1 C  s          
    35     -0.151090  3 O  s                 38      0.130528  3 O  py         
    36     -0.129259  3 O  s                 97      0.129263  7 Cl s          
 
 Vector   24  Occ=1.000000D+00  E=-6.044048D-01
              MO Center=  9.0D-02, -1.1D+00, -4.4D-01, r^2= 3.3D+00
   Bfn.  Coefficient  Atom+Function         Bfn.  Coefficient  Atom+Function  
  ----- ------------  ---------------      ----- ------------  ---------------
     5      0.284049  1 C  s                 39      0.207946  3 O  pz         
    77     -0.177801  6 Cl s                 38     -0.176524  3 O  py         
    42      0.175755  3 O  pz                76     -0.174598  6 Cl s          
    23      0.166021  2 C  py                55     -0.166072  5 Cl s          
    99     -0.166558  7 Cl s                 54     -0.154753  5 Cl s          
 
 Vector   25  Occ=1.000000D+00  E=-5.102073D-01
              MO Center=  3.0D-02, -4.7D-01, -5.0D-04, r^2= 3.4D+00
   Bfn.  Coefficient  Atom+Function         Bfn.  Coefficient  Atom+Function  
  ----- ------------  ---------------      ----- ------------  ---------------
     5      0.234941  1 C  s                 77     -0.227529  6 Cl s          
     6      0.223090  1 C  s                  9      0.181683  1 C  pz         
    12      0.179360  1 C  pz                23     -0.172454  2 C  py         
    76     -0.155895  6 Cl s                 89     -0.155639  6 Cl pz         
    21     -0.148731  2 C  s                 88      0.137554  6 Cl py         
 
 Vector   26  Occ=1.000000D+00  E=-4.771843D-01
              MO Center=  3.9D-02, -4.4D-01, -6.3D-01, r^2= 3.6D+00
   Bfn.  Coefficient  Atom+Function         Bfn.  Coefficient  Atom+Function  
  ----- ------------  ---------------      ----- ------------  ---------------
    24     -0.215276  2 C  pz                 8      0.199843  1 C  py         
    27     -0.200506  2 C  pz                11      0.185548  1 C  py         
    55     -0.165522  5 Cl s                 38     -0.162023  3 O  py         
    99     -0.160596  7 Cl s                  6      0.150972  1 C  s          
    65      0.143847  5 Cl px               109     -0.138484  7 Cl px         
 
 Vector   27  Occ=1.000000D+00  E=-4.548098D-01
              MO Center=  1.9D-03,  2.7D-01, -3.2D-01, r^2= 3.7D+00
   Bfn.  Coefficient  Atom+Function         Bfn.  Coefficient  Atom+Function  
  ----- ------------  ---------------      ----- ------------  ---------------
    10      0.266340  1 C  px                 7      0.232711  1 C  px         
    99     -0.215586  7 Cl s                 55      0.211919  5 Cl s          
   110     -0.165662  7 Cl py                65     -0.148271  5 Cl px         
    22      0.147515  2 C  px                66      0.146343  5 Cl py         
    37      0.135724  3 O  px               109     -0.133012  7 Cl px         
 
 Vector   28  Occ=1.000000D+00  E=-4.236022D-01
              MO Center=  2.4D-02, -4.1D-01, -2.0D-02, r^2= 4.1D+00
   Bfn.  Coefficient  Atom+Function         Bfn.  Coefficient  Atom+Function  
  ----- ------------  ---------------      ----- ------------  ---------------
    89      0.260329  6 Cl pz                12     -0.186672  1 C  pz         
     9     -0.163842  1 C  pz                24      0.161661  2 C  pz         
    27      0.154924  2 C  pz                11      0.153619  1 C  py         
    38      0.152593  3 O  py                65      0.150273  5 Cl px         
    77      0.144913  6 Cl s                109     -0.144410  7 Cl px         
 
 Vector   29  Occ=1.000000D+00  E=-3.901820D-01
              MO Center=  1.2D-01, -1.3D+00, -7.7D-01, r^2= 2.9D+00
   Bfn.  Coefficient  Atom+Function         Bfn.  Coefficient  Atom+Function  
  ----- ------------  ---------------      ----- ------------  ---------------
    37      0.371399  3 O  px                40      0.317855  3 O  px         
    22      0.187899  2 C  px                43      0.188731  3 O  px         
    25      0.179407  2 C  px                10     -0.131876  1 C  px         
    65      0.107106  5 Cl px               109      0.104471  7 Cl px         
     7     -0.100237  1 C  px                87     -0.079320  6 Cl px         
 
 Vector   30  Occ=1.000000D+00  E=-3.527782D-01
              MO Center=  1.3D-01, -1.4D+00, -8.9D-01, r^2= 3.0D+00
   Bfn.  Coefficient  Atom+Function         Bfn.  Coefficient  Atom+Function  
  ----- ------------  ---------------      ----- ------------  ---------------
    39      0.289135  3 O  pz                42      0.246010  3 O  pz         
    38      0.191413  3 O  py                36     -0.187603  3 O  s          
    35     -0.181336  3 O  s                 47      0.167025  4 H  s          
     6     -0.165669  1 C  s                 41      0.150358  3 O  py         
    44      0.148429  3 O  py                11      0.147182  1 C  py         
 
 Vector   31  Occ=1.000000D+00  E=-3.273031D-01
              MO Center= -9.6D-02, -3.4D-01,  1.2D+00, r^2= 2.8D+00
   Bfn.  Coefficient  Atom+Function         Bfn.  Coefficient  Atom+Function  
  ----- ------------  ---------------      ----- ------------  ---------------
    88      0.391040  6 Cl py                89      0.279911  6 Cl pz         
    91      0.249795  6 Cl py                85      0.183876  6 Cl py         
    92      0.177760  6 Cl pz                21      0.167149  2 C  s          
    65     -0.124150  5 Cl px                86      0.120895  6 Cl pz         
    79     -0.117738  6 Cl py                87     -0.107218  6 Cl px         
 
 Vector   32  Occ=1.000000D+00  E=-3.268435D-01
              MO Center=  5.4D-02, -9.6D-02,  9.9D-01, r^2= 3.5D+00
   Bfn.  Coefficient  Atom+Function         Bfn.  Coefficient  Atom+Function  
  ----- ------------  ---------------      ----- ------------  ---------------
    87      0.429601  6 Cl px                90      0.262647  6 Cl px         
    84      0.199713  6 Cl px               111      0.164384  7 Cl pz         
   109      0.158285  7 Cl px                65      0.144002  5 Cl px         
    13      0.138408  1 C  px                67     -0.131542  5 Cl pz         
    78     -0.128298  6 Cl px                81     -0.103004  6 Cl px         
 
 Vector   33  Occ=1.000000D+00  E=-3.078304D-01
              MO Center= -5.8D-02,  6.9D-01, -3.2D-02, r^2= 4.2D+00
   Bfn.  Coefficient  Atom+Function         Bfn.  Coefficient  Atom+Function  
  ----- ------------  ---------------      ----- ------------  ---------------
    66      0.268633  5 Cl py               110      0.260507  7 Cl py         
    88      0.249689  6 Cl py                67     -0.221137  5 Cl pz         
   111     -0.220620  7 Cl pz                91      0.167135  6 Cl py         
    69      0.162816  5 Cl py               113      0.158821  7 Cl py         
    15     -0.138755  1 C  pz                70     -0.127230  5 Cl pz         
 
 Vector   34  Occ=1.000000D+00  E=-2.970811D-01
              MO Center= -8.4D-02,  7.2D-01, -2.1D-01, r^2= 4.2D+00
   Bfn.  Coefficient  Atom+Function         Bfn.  Coefficient  Atom+Function  
  ----- ------------  ---------------      ----- ------------  ---------------
    67      0.286037  5 Cl pz               111     -0.268220  7 Cl pz         
    70      0.192892  5 Cl pz                66      0.191336  5 Cl py         
    87      0.187620  6 Cl px               109      0.185703  7 Cl px         
   114     -0.181766  7 Cl pz               110     -0.159089  7 Cl py         
    65      0.144967  5 Cl px                64      0.132283  5 Cl pz         
 
 Vector   35  Occ=1.000000D+00  E=-2.915808D-01
              MO Center=  4.3D-03,  7.2D-01, -3.3D-01, r^2= 4.1D+00
   Bfn.  Coefficient  Atom+Function         Bfn.  Coefficient  Atom+Function  
  ----- ------------  ---------------      ----- ------------  ---------------
   111      0.275509  7 Cl pz                67      0.265463  5 Cl pz         
   110      0.238358  7 Cl py                66      0.230882  5 Cl py         
   114      0.174667  7 Cl pz                70      0.167724  5 Cl pz         
   113      0.153701  7 Cl py                69      0.148983  5 Cl py         
    20      0.131922  2 C  s                108      0.129431  7 Cl pz         
 
 Vector   36  Occ=1.000000D+00  E=-2.830086D-01
              MO Center= -4.2D-02,  8.1D-01, -6.5D-02, r^2= 4.1D+00
   Bfn.  Coefficient  Atom+Function         Bfn.  Coefficient  Atom+Function  
  ----- ------------  ---------------      ----- ------------  ---------------
   109      0.241585  7 Cl px                66      0.230028  5 Cl py         
    87     -0.226670  6 Cl px                65      0.223078  5 Cl px         
   111      0.211935  7 Cl pz               110     -0.200635  7 Cl py         
    67     -0.195350  5 Cl pz               112      0.158046  7 Cl px         
    90     -0.155905  6 Cl px                69      0.148498  5 Cl py         
 
 Vector   37  Occ=1.000000D+00  E=-1.494982D-01
              MO Center=  8.7D-02, -8.0D-01, -8.7D-01, r^2= 2.8D+00
   Bfn.  Coefficient  Atom+Function         Bfn.  Coefficient  Atom+Function  
  ----- ------------  ---------------      ----- ------------  ---------------
    25      0.409819  2 C  px                22      0.373562  2 C  px         
    43     -0.288255  3 O  px                28      0.279757  2 C  px         
    37     -0.276041  3 O  px                40     -0.233280  3 O  px         
   110      0.179017  7 Cl py               113      0.176470  7 Cl py         
    99     -0.164002  7 Cl s                 55      0.162823  5 Cl s          
 
 Vector   38  Occ=0.000000D+00  E=-1.062389D-01
              MO Center= -3.7D-02,  3.8D-01,  3.4D-01, r^2= 3.7D+00
   Bfn.  Coefficient  Atom+Function         Bfn.  Coefficient  Atom+Function  
  ----- ------------  ---------------      ----- ------------  ---------------
     6      1.212293  1 C  s                  5      0.507692  1 C  s          
    77     -0.367781  6 Cl s                 92      0.350019  6 Cl pz         
    68     -0.324632  5 Cl px               112      0.316569  7 Cl px         
    55     -0.296123  5 Cl s                 99     -0.296197  7 Cl s          
    91     -0.260766  6 Cl py                89      0.253293  6 Cl pz         
 
 Vector   39  Occ=0.000000D+00  E=-6.109252D-02
              MO Center= -5.1D-03, -2.3D-02,  1.8D-01, r^2= 3.6D+00
   Bfn.  Coefficient  Atom+Function         Bfn.  Coefficient  Atom+Function  
  ----- ------------  ---------------      ----- ------------  ---------------
    77      0.542966  6 Cl s                 92     -0.472583  6 Cl pz         
    11      0.405317  1 C  py                15     -0.401788  1 C  pz         
    12     -0.395289  1 C  pz                14      0.322309  1 C  py         
    48     -0.315894  4 H  s                 36      0.305389  3 O  s          
    68     -0.305080  5 Cl px                89     -0.296897  6 Cl pz         
 
 Vector   40  Occ=0.000000D+00  E=-2.327501D-02
              MO Center= -1.5D-02,  2.4D-01, -3.1D-01, r^2= 3.3D+00
   Bfn.  Coefficient  Atom+Function         Bfn.  Coefficient  Atom+Function  
  ----- ------------  ---------------      ----- ------------  ---------------
    13      0.750676  1 C  px                10      0.623307  1 C  px         
    55      0.532638  5 Cl s                 99     -0.528969  7 Cl s          
    28     -0.452396  2 C  px                 7      0.424977  1 C  px         
    68      0.333292  5 Cl px               113      0.305301  7 Cl py         
   112      0.301792  7 Cl px                69     -0.266472  5 Cl py         
 
 Vector   41  Occ=0.000000D+00  E=-1.248792D-02
              MO Center=  1.7D-01, -2.4D+00,  1.8D-01, r^2= 3.1D+00
   Bfn.  Coefficient  Atom+Function         Bfn.  Coefficient  Atom+Function  
  ----- ------------  ---------------      ----- ------------  ---------------
   117      1.403607  8 H  s                 36     -0.712740  3 O  s          
    48     -0.504047  4 H  s                 45     -0.342968  3 O  pz         
   116      0.313127  8 H  s                 30     -0.284074  2 C  pz         
    21      0.263889  2 C  s                 15      0.225905  1 C  pz         
    29      0.223535  2 C  py                42     -0.206816  3 O  pz         
 
 Vector   42  Occ=0.000000D+00  E= 5.793812D-02
              MO Center=  1.0D-01, -4.9D-01, -2.4D+00, r^2= 3.3D+00
   Bfn.  Coefficient  Atom+Function         Bfn.  Coefficient  Atom+Function  
  ----- ------------  ---------------      ----- ------------  ---------------
    48      2.696336  4 H  s                 21     -1.940909  2 C  s          
    30      1.266100  2 C  pz                29     -0.515076  2 C  py         
    14      0.420749  1 C  py                15     -0.370396  1 C  pz         
    45     -0.209331  3 O  pz                12     -0.207721  1 C  pz         
    20     -0.204814  2 C  s                 55     -0.192132  5 Cl s          
 
 Vector   43  Occ=0.000000D+00  E= 1.089172D-01
              MO Center= -1.5D-02,  1.8D-01, -8.1D-02, r^2= 4.5D+00
   Bfn.  Coefficient  Atom+Function         Bfn.  Coefficient  Atom+Function  
  ----- ------------  ---------------      ----- ------------  ---------------
    21     -3.442473  2 C  s                  6      3.207249  1 C  s          
    30     -2.359891  2 C  pz                14     -2.220983  1 C  py         
    15     -1.519225  1 C  pz                48     -1.449272  4 H  s          
    29     -0.598110  2 C  py                36      0.381951  3 O  s          
    44      0.355733  3 O  py                27     -0.311886  2 C  pz         
 
 Vector   44  Occ=0.000000D+00  E= 1.356971D-01
              MO Center=  1.2D-01, -1.3D+00, -9.8D-01, r^2= 5.4D+00
   Bfn.  Coefficient  Atom+Function         Bfn.  Coefficient  Atom+Function  
  ----- ------------  ---------------      ----- ------------  ---------------
    29      2.362908  2 C  py                36      1.351581  3 O  s          
   117      1.046975  8 H  s                  6     -0.935022  1 C  s          
    15      0.909573  1 C  pz                21     -0.743131  2 C  s          
    44      0.614587  3 O  py                45     -0.547184  3 O  pz         
    77     -0.437302  6 Cl s                 20     -0.319375  2 C  s          
 
 Vector   45  Occ=0.000000D+00  E= 1.805750D-01
              MO Center=  5.9D-02, -5.7D-01, -7.0D-01, r^2= 6.0D+00
   Bfn.  Coefficient  Atom+Function         Bfn.  Coefficient  Atom+Function  
  ----- ------------  ---------------      ----- ------------  ---------------
    28      0.990419  2 C  px                13      0.973184  1 C  px         
    25     -0.595929  2 C  px                99     -0.528807  7 Cl s          
    55      0.521642  5 Cl s                 68      0.370606  5 Cl px         
   113      0.355524  7 Cl py               112      0.331306  7 Cl px         
    69     -0.305653  5 Cl py                10     -0.244257  1 C  px         
 
 Vector   46  Occ=0.000000D+00  E= 2.182117D-01
              MO Center= -2.5D-03, -2.6D-01,  6.0D-01, r^2= 6.5D+00
   Bfn.  Coefficient  Atom+Function         Bfn.  Coefficient  Atom+Function  
  ----- ------------  ---------------      ----- ------------  ---------------
    15      2.510363  1 C  pz                77     -1.222979  6 Cl s          
    14     -0.931722  1 C  py                92      0.886807  6 Cl pz         
    21      0.687399  2 C  s                 12     -0.631658  1 C  pz         
   117     -0.549158  8 H  s                 20     -0.506877  2 C  s          
    48      0.476378  4 H  s                 55      0.412762  5 Cl s          
 
 Vector   47  Occ=0.000000D+00  E= 2.358116D-01
              MO Center= -3.3D-02,  9.7D-02, -8.1D-03, r^2= 7.4D+00
   Bfn.  Coefficient  Atom+Function         Bfn.  Coefficient  Atom+Function  
  ----- ------------  ---------------      ----- ------------  ---------------
    30      2.242227  2 C  pz                14      1.958119  1 C  py         
    48      1.285830  4 H  s                 21      1.264459  2 C  s          
   117     -1.058488  8 H  s                 36     -0.908422  3 O  s          
    29     -0.854961  2 C  py                68     -0.669595  5 Cl px         
   116      0.648278  8 H  s                 20     -0.638001  2 C  s          
 
 Vector   48  Occ=0.000000D+00  E= 2.451725D-01
              MO Center=  5.4D-02, -1.3D-01, -5.6D-01, r^2= 7.0D+00
   Bfn.  Coefficient  Atom+Function         Bfn.  Coefficient  Atom+Function  
  ----- ------------  ---------------      ----- ------------  ---------------
    13      3.117761  1 C  px                28     -1.827991  2 C  px         
    99     -1.038213  7 Cl s                 55      1.017723  5 Cl s          
    10     -0.574349  1 C  px               113      0.458601  7 Cl py         
    69     -0.400741  5 Cl py                90     -0.379935  6 Cl px         
    25      0.369064  2 C  px                68      0.358241  5 Cl px         
 
 Vector   49  Occ=0.000000D+00  E= 2.568807D-01
              MO Center=  5.1D-02, -6.0D-01, -2.6D-01, r^2= 5.2D+00
   Bfn.  Coefficient  Atom+Function         Bfn.  Coefficient  Atom+Function  
  ----- ------------  ---------------      ----- ------------  ---------------
    30      2.865107  2 C  pz                48      1.978327  4 H  s          
    15     -1.128639  1 C  pz                21     -0.756983  2 C  s          
    14     -0.718416  1 C  py                 6     -0.646889  1 C  s          
    20     -0.541794  2 C  s                 27     -0.471134  2 C  pz         
    11      0.389394  1 C  py               117     -0.375652  8 H  s          
 
 Vector   50  Occ=0.000000D+00  E= 2.731714D-01
              MO Center=  5.6D-02, -9.6D-01,  5.2D-01, r^2= 8.8D+00
   Bfn.  Coefficient  Atom+Function         Bfn.  Coefficient  Atom+Function  
  ----- ------------  ---------------      ----- ------------  ---------------
     6      3.367639  1 C  s                 92      1.058813  6 Cl pz         
   116     -0.898755  8 H  s                 15     -0.886733  1 C  pz         
   117      0.891161  8 H  s                 30     -0.848792  2 C  pz         
     5     -0.768043  1 C  s                 48     -0.744613  4 H  s          
    68     -0.707929  5 Cl px               112      0.650275  7 Cl px         
 
 Vector   51  Occ=0.000000D+00  E= 3.039601D-01
              MO Center=  8.8D-02, -1.0D+00, -3.0D-01, r^2= 7.4D+00
   Bfn.  Coefficient  Atom+Function         Bfn.  Coefficient  Atom+Function  
  ----- ------------  ---------------      ----- ------------  ---------------
     6      2.205172  1 C  s                 30     -1.089052  2 C  pz         
    91     -0.896241  6 Cl py                47     -0.792840  4 H  s          
   117     -0.686490  8 H  s                116      0.670659  8 H  s          
     5     -0.603425  1 C  s                 29     -0.567506  2 C  py         
    44      0.525901  3 O  py                92      0.527037  6 Cl pz         
 
 Vector   52  Occ=0.000000D+00  E= 3.115851D-01
              MO Center= -8.1D-02,  6.6D-01,  1.3D-01, r^2= 7.8D+00
   Bfn.  Coefficient  Atom+Function         Bfn.  Coefficient  Atom+Function  
  ----- ------------  ---------------      ----- ------------  ---------------
    90     -0.681584  6 Cl px                68      0.671929  5 Cl px         
   113      0.611567  7 Cl py                87      0.602188  6 Cl px         
   112      0.590617  7 Cl px                69     -0.533992  5 Cl py         
    70      0.406017  5 Cl pz               110     -0.389596  7 Cl py         
    65     -0.375611  5 Cl px               114     -0.358121  7 Cl pz         
 
 Vector   53  Occ=0.000000D+00  E= 3.152198D-01
              MO Center=  8.4D-02, -5.6D-01, -7.5D-01, r^2= 5.3D+00
   Bfn.  Coefficient  Atom+Function         Bfn.  Coefficient  Atom+Function  
  ----- ------------  ---------------      ----- ------------  ---------------
     6      1.434284  1 C  s                 14     -1.430456  1 C  py         
    29      1.303999  2 C  py                30     -1.283648  2 C  pz         
    15      1.065216  1 C  pz                48     -0.922604  4 H  s          
    20      0.871221  2 C  s                 77     -0.753479  6 Cl s          
    26     -0.733507  2 C  py               113      0.592655  7 Cl py         
 
 Vector   54  Occ=0.000000D+00  E= 3.322019D-01
              MO Center= -3.2D-02,  5.1D-01, -2.5D-02, r^2= 7.4D+00
   Bfn.  Coefficient  Atom+Function         Bfn.  Coefficient  Atom+Function  
  ----- ------------  ---------------      ----- ------------  ---------------
    30      1.101848  2 C  pz                48      0.980690  4 H  s          
   112     -0.844396  7 Cl px                14     -0.785789  1 C  py         
    68      0.776847  5 Cl px                92      0.768606  6 Cl pz         
   109      0.543032  7 Cl px                 6     -0.540043  1 C  s          
   117     -0.533413  8 H  s                 69      0.511841  5 Cl py         
 
 Vector   55  Occ=0.000000D+00  E= 3.564811D-01
              MO Center=  2.4D-02, -4.6D-01, -2.1D-01, r^2= 6.2D+00
   Bfn.  Coefficient  Atom+Function         Bfn.  Coefficient  Atom+Function  
  ----- ------------  ---------------      ----- ------------  ---------------
     6      1.533106  1 C  s                 21     -1.417185  2 C  s          
    29     -1.356495  2 C  py                47      1.000277  4 H  s          
    91     -0.788435  6 Cl py                30      0.784292  2 C  pz         
    14      0.739523  1 C  py                 5     -0.624650  1 C  s          
    44      0.610762  3 O  py                88      0.582241  6 Cl py         
 
 Vector   56  Occ=0.000000D+00  E= 3.658363D-01
              MO Center= -2.6D-02, -5.4D-02,  8.2D-01, r^2= 7.4D+00
   Bfn.  Coefficient  Atom+Function         Bfn.  Coefficient  Atom+Function  
  ----- ------------  ---------------      ----- ------------  ---------------
    13      2.678980  1 C  px                90     -1.552587  6 Cl px         
    55      0.977936  5 Cl s                 99     -0.981282  7 Cl s          
    68     -0.734069  5 Cl px               112     -0.734518  7 Cl px         
    87      0.716344  6 Cl px                28     -0.689098  2 C  px         
    65      0.568527  5 Cl px               109      0.543678  7 Cl px         
 
 Vector   57  Occ=0.000000D+00  E= 3.820159D-01
              MO Center= -6.7D-02,  7.1D-01, -2.5D-01, r^2= 7.7D+00
   Bfn.  Coefficient  Atom+Function         Bfn.  Coefficient  Atom+Function  
  ----- ------------  ---------------      ----- ------------  ---------------
    15      2.184424  1 C  pz                70     -1.322186  5 Cl pz         
   114     -1.309955  7 Cl pz                77     -0.899051  6 Cl s          
    67      0.667702  5 Cl pz                21      0.664304  2 C  s          
   111      0.652357  7 Cl pz                 6     -0.596725  1 C  s          
   116     -0.532455  8 H  s                117      0.390776  8 H  s          
 
 Vector   58  Occ=0.000000D+00  E= 3.890357D-01
              MO Center=  2.5D-04, -5.2D-02, -1.1D-01, r^2= 6.7D+00
   Bfn.  Coefficient  Atom+Function         Bfn.  Coefficient  Atom+Function  
  ----- ------------  ---------------      ----- ------------  ---------------
    14      2.527179  1 C  py                30      1.466502  2 C  pz         
     6     -1.287060  1 C  s                 91     -1.025664  6 Cl py         
    69     -0.926884  5 Cl py               113     -0.904345  7 Cl py         
    26     -0.783443  2 C  py                48      0.750710  4 H  s          
    21      0.735034  2 C  s                  5      0.597818  1 C  s          
 
 Vector   59  Occ=0.000000D+00  E= 3.997359D-01
              MO Center= -6.1D-03,  7.5D-01, -4.1D-01, r^2= 7.2D+00
   Bfn.  Coefficient  Atom+Function         Bfn.  Coefficient  Atom+Function  
  ----- ------------  ---------------      ----- ------------  ---------------
   114     -0.867032  7 Cl pz                70      0.853192  5 Cl pz         
   113     -0.693002  7 Cl py                69      0.677703  5 Cl py         
    28     -0.650281  2 C  px               111      0.573316  7 Cl pz         
    13      0.569489  1 C  px                67     -0.566372  5 Cl pz         
   110      0.496781  7 Cl py                66     -0.492149  5 Cl py         
 
 Vector   60  Occ=0.000000D+00  E= 4.056561D-01
              MO Center= -3.3D-02,  6.6D-01, -9.0D-03, r^2= 7.7D+00
   Bfn.  Coefficient  Atom+Function         Bfn.  Coefficient  Atom+Function  
  ----- ------------  ---------------      ----- ------------  ---------------
    90     -0.800577  6 Cl px                69      0.745536  5 Cl py         
   114      0.684778  7 Cl pz               113     -0.671586  7 Cl py         
    70     -0.638249  5 Cl pz               112      0.570117  7 Cl px         
    87      0.535395  6 Cl px                68      0.508623  5 Cl px         
    66     -0.485609  5 Cl py               111     -0.439784  7 Cl pz         
 
 Vector   61  Occ=0.000000D+00  E= 4.261605D-01
              MO Center=  5.5D-02, -5.0D-01, -5.9D-01, r^2= 6.9D+00
   Bfn.  Coefficient  Atom+Function         Bfn.  Coefficient  Atom+Function  
  ----- ------------  ---------------      ----- ------------  ---------------
    21      4.655051  2 C  s                 30     -3.483891  2 C  pz         
    48     -3.328178  4 H  s                 29      2.459544  2 C  py         
    15      1.830204  1 C  pz                20     -1.689883  2 C  s          
    14     -1.658707  1 C  py                47     -0.806515  4 H  s          
     6     -0.777955  1 C  s                117      0.691072  8 H  s          
 
 Vector   62  Occ=0.000000D+00  E= 4.527881D-01
              MO Center=  9.6D-02, -6.5D-01, -1.4D+00, r^2= 5.4D+00
   Bfn.  Coefficient  Atom+Function         Bfn.  Coefficient  Atom+Function  
  ----- ------------  ---------------      ----- ------------  ---------------
    21      3.607260  2 C  s                 48     -2.897494  4 H  s          
    20     -1.866158  2 C  s                 30     -1.340618  2 C  pz         
    47      1.068877  4 H  s                 27      0.678520  2 C  pz         
    14      0.593136  1 C  py                36     -0.445095  3 O  s          
    45      0.413929  3 O  pz               116      0.412682  8 H  s          
 
 Vector   63  Occ=0.000000D+00  E= 4.577253D-01
              MO Center=  1.2D-01, -1.5D+00, -7.9D-01, r^2= 5.9D+00
   Bfn.  Coefficient  Atom+Function         Bfn.  Coefficient  Atom+Function  
  ----- ------------  ---------------      ----- ------------  ---------------
    43      1.646870  3 O  px                28     -1.421622  2 C  px         
    40     -0.627808  3 O  px                13      0.601070  1 C  px         
   112      0.433820  7 Cl px                70      0.407902  5 Cl pz         
    68      0.375983  5 Cl px               114     -0.370691  7 Cl pz         
    69      0.358728  5 Cl py                55      0.314504  5 Cl s          
 
 Vector   64  Occ=0.000000D+00  E= 4.981780D-01
              MO Center=  1.9D-01, -2.4D+00, -4.6D-01, r^2= 4.5D+00
   Bfn.  Coefficient  Atom+Function         Bfn.  Coefficient  Atom+Function  
  ----- ------------  ---------------      ----- ------------  ---------------
    44      2.119349  3 O  py                21     -1.837332  2 C  s          
   117      1.735448  8 H  s                 30     -1.284864  2 C  pz         
    15     -1.048276  1 C  pz                91      0.844089  6 Cl py         
     5      0.745719  1 C  s                116     -0.723206  8 H  s          
    41     -0.625855  3 O  py                45      0.579947  3 O  pz         
 
 Vector   65  Occ=0.000000D+00  E= 5.746502D-01
              MO Center=  8.1D-02, -9.0D-01, -5.1D-01, r^2= 5.6D+00
   Bfn.  Coefficient  Atom+Function         Bfn.  Coefficient  Atom+Function  
  ----- ------------  ---------------      ----- ------------  ---------------
    21     -6.229919  2 C  s                  6      6.095723  1 C  s          
     5     -2.613122  1 C  s                 15     -2.131742  1 C  pz         
    45     -1.763874  3 O  pz                14     -1.407817  1 C  py         
    44      1.389124  3 O  py               117      1.355426  8 H  s          
    30     -1.236284  2 C  pz                48     -0.797006  4 H  s          
 
 Vector   66  Occ=0.000000D+00  E= 6.652537D-01
              MO Center=  1.1D-01, -1.2D+00, -8.6D-01, r^2= 5.8D+00
   Bfn.  Coefficient  Atom+Function         Bfn.  Coefficient  Atom+Function  
  ----- ------------  ---------------      ----- ------------  ---------------
     6      9.185886  1 C  s                 30     -5.096210  2 C  pz         
    21     -3.286683  2 C  s                 45      3.105998  3 O  pz         
     5     -2.656373  1 C  s                 48     -2.562005  4 H  s          
    29     -1.920488  2 C  py                14     -1.641178  1 C  py         
   116     -1.132891  8 H  s                 15     -1.078316  1 C  pz         
 
 Vector   67  Occ=0.000000D+00  E= 8.787520D-01
              MO Center=  5.7D-01,  3.6D-01, -8.4D-02, r^2= 4.7D+00
   Bfn.  Coefficient  Atom+Function         Bfn.  Coefficient  Atom+Function  
  ----- ------------  ---------------      ----- ------------  ---------------
    99      3.140332  7 Cl s                 98     -2.268365  7 Cl s          
    77     -1.648517  6 Cl s                 76      1.166699  6 Cl s          
    36     -1.124713  3 O  s                 13     -1.085882  1 C  px         
    55     -0.958767  5 Cl s                 14     -0.936531  1 C  py         
   112     -0.782806  7 Cl px                54      0.731023  5 Cl s          
 
 Vector   68  Occ=0.000000D+00  E= 8.802064D-01
              MO Center= -6.1D-01,  1.0D-01, -7.9D-03, r^2= 4.8D+00
   Bfn.  Coefficient  Atom+Function         Bfn.  Coefficient  Atom+Function  
  ----- ------------  ---------------      ----- ------------  ---------------
    55      3.041083  5 Cl s                 54     -2.179425  5 Cl s          
    77     -2.042467  6 Cl s                 76      1.440218  6 Cl s          
    36     -1.343836  3 O  s                 14     -1.021417  1 C  py         
    13      0.972759  1 C  px                35      0.870520  3 O  s          
    68      0.853714  5 Cl px                15      0.809025  1 C  pz         
 
 Vector   69  Occ=0.000000D+00  E= 9.425102D-01
              MO Center= -1.4D-02,  3.0D-02,  5.0D-01, r^2= 5.1D+00
   Bfn.  Coefficient  Atom+Function         Bfn.  Coefficient  Atom+Function  
  ----- ------------  ---------------      ----- ------------  ---------------
     6      4.597850  1 C  s                 77     -3.381178  6 Cl s          
    99     -2.073304  7 Cl s                 55     -2.055779  5 Cl s          
    76      2.055173  6 Cl s                  5     -1.514848  1 C  s          
    98      1.266934  7 Cl s                 54      1.255320  5 Cl s          
    29      1.078074  2 C  py                36      1.074154  3 O  s          
 
 Vector   70  Occ=0.000000D+00  E= 1.064481D+00
              MO Center=  1.3D-01, -1.4D+00, -6.4D-01, r^2= 4.4D+00
   Bfn.  Coefficient  Atom+Function         Bfn.  Coefficient  Atom+Function  
  ----- ------------  ---------------      ----- ------------  ---------------
    36      5.605330  3 O  s                 21     -3.153646  2 C  s          
    35     -2.729302  3 O  s                 30     -2.459689  2 C  pz         
    99      1.461271  7 Cl s                 44      1.452969  3 O  py         
    14     -1.430664  1 C  py                55      1.421745  5 Cl s          
    48     -1.272540  4 H  s                 29      1.163222  2 C  py         
 
 Vector   71  Occ=0.000000D+00  E= 1.272725D+00
              MO Center=  3.6D-02, -3.6D-01, -4.9D-01, r^2= 2.8D+00
   Bfn.  Coefficient  Atom+Function         Bfn.  Coefficient  Atom+Function  
  ----- ------------  ---------------      ----- ------------  ---------------
    26     -2.062607  2 C  py                 6      2.000259  1 C  s          
    11     -1.737258  1 C  py                14      1.253564  1 C  py         
    99     -1.019575  7 Cl s                 55     -1.011216  5 Cl s          
    12     -1.003285  1 C  pz                 8      0.854368  1 C  py         
    23      0.812955  2 C  py                30     -0.607645  2 C  pz         
 
 Vector   72  Occ=0.000000D+00  E= 1.288044D+00
              MO Center=  7.4D-02, -6.7D-01, -8.5D-01, r^2= 2.1D+00
   Bfn.  Coefficient  Atom+Function         Bfn.  Coefficient  Atom+Function  
  ----- ------------  ---------------      ----- ------------  ---------------
    25      1.491441  2 C  px                22     -1.108173  2 C  px         
    13     -0.978904  1 C  px                10      0.782442  1 C  px         
    55     -0.687508  5 Cl s                 28     -0.653616  2 C  px         
    99      0.637432  7 Cl s                  7     -0.600971  1 C  px         
    54      0.395387  5 Cl s                 98     -0.369985  7 Cl s          
 
 Vector   73  Occ=0.000000D+00  E= 1.335280D+00
              MO Center=  1.3D-02, -1.7D-01, -1.2D-01, r^2= 2.6D+00
   Bfn.  Coefficient  Atom+Function         Bfn.  Coefficient  Atom+Function  
  ----- ------------  ---------------      ----- ------------  ---------------
    12      1.870906  1 C  pz                15     -1.850035  1 C  pz         
    77      1.785191  6 Cl s                 27      1.394071  2 C  pz         
     6     -1.324048  1 C  s                 76     -1.065679  6 Cl s          
     9     -1.035730  1 C  pz                36     -0.738215  3 O  s          
    20      0.648953  2 C  s                 48     -0.647817  4 H  s          
 
 Vector   74  Occ=0.000000D+00  E= 1.397637D+00
              MO Center=  1.5D-02, -1.2D-01, -2.9D-01, r^2= 2.7D+00
   Bfn.  Coefficient  Atom+Function         Bfn.  Coefficient  Atom+Function  
  ----- ------------  ---------------      ----- ------------  ---------------
    13     -1.954859  1 C  px                10      1.835289  1 C  px         
     7     -1.090801  1 C  px                25     -1.062147  2 C  px         
    28      1.002935  2 C  px                99      0.980068  7 Cl s          
    55     -0.967606  5 Cl s                 98     -0.715140  7 Cl s          
    54      0.706483  5 Cl s                 22      0.605036  2 C  px         
 
 Vector   75  Occ=0.000000D+00  E= 1.482020D+00
              MO Center=  3.7D-02, -2.7D-01, -6.5D-01, r^2= 2.8D+00
   Bfn.  Coefficient  Atom+Function         Bfn.  Coefficient  Atom+Function  
  ----- ------------  ---------------      ----- ------------  ---------------
    26      2.110365  2 C  py                11     -1.477306  1 C  py         
    14      1.451151  1 C  py                29     -1.293945  2 C  py         
     8      0.907040  1 C  py                23     -0.898982  2 C  py         
    20     -0.789373  2 C  s                  6      0.609886  1 C  s          
     5     -0.577859  1 C  s                 41      0.505450  3 O  py         
 
 Vector   76  Occ=0.000000D+00  E= 1.539936D+00
              MO Center=  7.7D-02, -7.6D-01, -7.8D-01, r^2= 2.3D+00
   Bfn.  Coefficient  Atom+Function         Bfn.  Coefficient  Atom+Function  
  ----- ------------  ---------------      ----- ------------  ---------------
    27      2.465171  2 C  pz                30     -1.701054  2 C  pz         
    48     -1.590349  4 H  s                 21      1.309872  2 C  s          
    24     -1.175452  2 C  pz                47      1.060560  4 H  s          
    15      0.981281  1 C  pz                12     -0.781886  1 C  pz         
     9      0.616845  1 C  pz                 5     -0.566459  1 C  s          
 
 Vector   77  Occ=0.000000D+00  E= 1.984991D+00
              MO Center=  1.7D-01, -2.4D+00,  8.3D-02, r^2= 1.6D+00
   Bfn.  Coefficient  Atom+Function         Bfn.  Coefficient  Atom+Function  
  ----- ------------  ---------------      ----- ------------  ---------------
   116      2.222703  8 H  s                115     -1.257061  8 H  s          
   117     -1.091289  8 H  s                 42     -0.815026  3 O  pz         
    30      0.647079  2 C  pz                39      0.575325  3 O  pz         
     6     -0.444887  1 C  s                 36     -0.426164  3 O  s          
    48      0.395308  4 H  s                 29     -0.324180  2 C  py         
 
 Vector   78  Occ=0.000000D+00  E= 2.141392D+00
              MO Center=  9.3D-02, -6.8D-01, -1.5D+00, r^2= 2.7D+00
   Bfn.  Coefficient  Atom+Function         Bfn.  Coefficient  Atom+Function  
  ----- ------------  ---------------      ----- ------------  ---------------
    20      3.259108  2 C  s                 19     -2.387572  2 C  s          
    21     -2.089519  2 C  s                 47     -1.824870  4 H  s          
     6      1.103547  1 C  s                 46      1.073804  4 H  s          
     5     -0.862752  1 C  s                 48      0.722328  4 H  s          
    30     -0.675470  2 C  pz                14     -0.502578  1 C  py         
 
 Vector   79  Occ=0.000000D+00  E= 2.188653D+00
              MO Center= -3.7D-02,  5.1D-01,  3.0D-01, r^2= 4.4D+00
   Bfn.  Coefficient  Atom+Function         Bfn.  Coefficient  Atom+Function  
  ----- ------------  ---------------      ----- ------------  ---------------
    87     -1.150887  6 Cl px                65     -1.115437  5 Cl px         
   109     -1.096553  7 Cl px                84      1.087594  6 Cl px         
    62      1.077489  5 Cl px               106      1.059050  7 Cl px         
    90      0.545565  6 Cl px                68      0.497819  5 Cl px         
   112      0.490175  7 Cl px               110     -0.309915  7 Cl py         
 
 Vector   80  Occ=0.000000D+00  E= 2.193915D+00
              MO Center= -4.4D-02,  1.9D-01,  4.3D-01, r^2= 4.6D+00
   Bfn.  Coefficient  Atom+Function         Bfn.  Coefficient  Atom+Function  
  ----- ------------  ---------------      ----- ------------  ---------------
    89     -1.094483  6 Cl pz                86      1.029397  6 Cl pz         
    20      0.817060  2 C  s                 88      0.775138  6 Cl py         
    67     -0.743016  5 Cl pz                85     -0.733509  6 Cl py         
   111     -0.726701  7 Cl pz                64      0.703756  5 Cl pz         
   108      0.687670  7 Cl pz                66      0.656405  5 Cl py         
 
 Vector   81  Occ=0.000000D+00  E= 2.228494D+00
              MO Center= -4.8D-02,  5.0D-01,  3.1D-01, r^2= 4.4D+00
   Bfn.  Coefficient  Atom+Function         Bfn.  Coefficient  Atom+Function  
  ----- ------------  ---------------      ----- ------------  ---------------
    87     -1.196615  6 Cl px                84      1.106902  6 Cl px         
   109      0.825713  7 Cl px                65      0.793649  5 Cl px         
   106     -0.767201  7 Cl px                62     -0.737188  5 Cl px         
   111      0.690919  7 Cl pz               108     -0.643900  7 Cl pz         
    66      0.636724  5 Cl py                67     -0.635073  5 Cl pz         
 
 Vector   82  Occ=0.000000D+00  E= 2.252753D+00
              MO Center= -6.1D-01,  8.0D-01, -1.4D-01, r^2= 3.9D+00
   Bfn.  Coefficient  Atom+Function         Bfn.  Coefficient  Atom+Function  
  ----- ------------  ---------------      ----- ------------  ---------------
    67     -1.324395  5 Cl pz                64      1.228167  5 Cl pz         
   111      0.973166  7 Cl pz                66     -0.914195  5 Cl py         
   108     -0.901661  7 Cl pz                63      0.851958  5 Cl py         
    88      0.592094  6 Cl py                70      0.582788  5 Cl pz         
    85     -0.539337  6 Cl py               114     -0.439333  7 Cl pz         
 
 Vector   83  Occ=0.000000D+00  E= 2.253284D+00
              MO Center=  5.2D-01,  1.8D-01,  6.4D-01, r^2= 4.1D+00
   Bfn.  Coefficient  Atom+Function         Bfn.  Coefficient  Atom+Function  
  ----- ------------  ---------------      ----- ------------  ---------------
    88     -1.331687  6 Cl py                85      1.211054  6 Cl py         
   111      0.849088  7 Cl pz               110      0.843301  7 Cl py         
   107     -0.790813  7 Cl py               108     -0.789191  7 Cl pz         
    89     -0.673889  6 Cl pz                91      0.640310  6 Cl py         
    86      0.618739  6 Cl pz               109     -0.549403  7 Cl px         
 
 Vector   84  Occ=0.000000D+00  E= 2.264286D+00
              MO Center= -1.3D-02,  3.8D-01, -6.1D-02, r^2= 3.7D+00
   Bfn.  Coefficient  Atom+Function         Bfn.  Coefficient  Atom+Function  
  ----- ------------  ---------------      ----- ------------  ---------------
     6      3.622354  1 C  s                  5     -2.934333  1 C  s          
     4      2.021004  1 C  s                 21     -1.529916  2 C  s          
   111      0.739670  7 Cl pz                67      0.717557  5 Cl pz         
    88      0.717777  6 Cl py               110      0.716643  7 Cl py         
    20      0.701905  2 C  s                 66      0.700704  5 Cl py         
 
 Vector   85  Occ=0.000000D+00  E= 2.291359D+00
              MO Center= -5.9D-02,  5.3D-01,  1.6D-01, r^2= 4.8D+00
   Bfn.  Coefficient  Atom+Function         Bfn.  Coefficient  Atom+Function  
  ----- ------------  ---------------      ----- ------------  ---------------
   110     -1.180918  7 Cl py                66      1.154083  5 Cl py         
    87      1.106414  6 Cl px               107      1.063413  7 Cl py         
    63     -1.042312  5 Cl py                84     -1.020691  6 Cl px         
    69     -0.505651  5 Cl py               113      0.507037  7 Cl py         
    90     -0.430125  6 Cl px                65     -0.415872  5 Cl px         
 
 Vector   86  Occ=0.000000D+00  E= 2.317040D+00
              MO Center=  9.1D-03,  2.8D-01, -4.4D-01, r^2= 3.8D+00
   Bfn.  Coefficient  Atom+Function         Bfn.  Coefficient  Atom+Function  
  ----- ------------  ---------------      ----- ------------  ---------------
     5      2.969322  1 C  s                  6     -2.950932  1 C  s          
     4     -2.192182  1 C  s                 20      1.872265  2 C  s          
    19     -1.639868  2 C  s                 30      1.031095  2 C  pz         
    65     -0.964901  5 Cl px               109      0.936723  7 Cl px         
    62      0.862513  5 Cl px               106     -0.839069  7 Cl px         
 
 Vector   87  Occ=0.000000D+00  E= 2.321476D+00
              MO Center= -1.4D-02,  1.6D-01,  2.5D-01, r^2= 4.3D+00
   Bfn.  Coefficient  Atom+Function         Bfn.  Coefficient  Atom+Function  
  ----- ------------  ---------------      ----- ------------  ---------------
     6     -2.869236  1 C  s                  5      2.820449  1 C  s          
     4     -2.023085  1 C  s                 89      1.226484  6 Cl pz         
    86     -1.043919  6 Cl pz                14      0.818430  1 C  py         
    30      0.811810  2 C  pz               109     -0.679172  7 Cl px         
    66      0.640295  5 Cl py                92     -0.635050  6 Cl pz         
 
 Vector   88  Occ=0.000000D+00  E= 2.379051D+00
              MO Center= -1.3D-02,  1.0D-01,  1.6D-01, r^2= 4.0D+00
   Bfn.  Coefficient  Atom+Function         Bfn.  Coefficient  Atom+Function  
  ----- ------------  ---------------      ----- ------------  ---------------
     6      4.043873  1 C  s                 21     -3.269782  2 C  s          
     5     -2.651673  1 C  s                 20      1.687048  2 C  s          
     4      1.654337  1 C  s                 88     -1.140116  6 Cl py         
    19     -1.116583  2 C  s                 15     -0.996463  1 C  pz         
    85      0.980019  6 Cl py                14     -0.896455  1 C  py         
 
 Vector   89  Occ=0.000000D+00  E= 2.462452D+00
              MO Center=  1.7D-01, -2.1D+00, -8.3D-01, r^2= 1.6D+00
   Bfn.  Coefficient  Atom+Function         Bfn.  Coefficient  Atom+Function  
  ----- ------------  ---------------      ----- ------------  ---------------
    40      1.721232  3 O  px                37     -1.173996  3 O  px         
    43     -1.046553  3 O  px                28      0.623265  2 C  px         
    25     -0.331788  2 C  px                87     -0.308398  6 Cl px         
    84      0.259682  6 Cl px                10      0.247102  1 C  px         
    13     -0.222666  1 C  px               110      0.222716  7 Cl py         
 
 Vector   90  Occ=0.000000D+00  E= 2.517241D+00
              MO Center=  3.7D-02, -1.5D-01, -8.3D-01, r^2= 4.0D+00
   Bfn.  Coefficient  Atom+Function         Bfn.  Coefficient  Atom+Function  
  ----- ------------  ---------------      ----- ------------  ---------------
    20      3.515077  2 C  s                 19     -2.556865  2 C  s          
    21     -2.567907  2 C  s                 47      1.121205  4 H  s          
    30      1.039621  2 C  pz                65      0.915512  5 Cl px         
    46     -0.850676  4 H  s                109     -0.846233  7 Cl px         
    29     -0.829466  2 C  py                48      0.821736  4 H  s          
 
 Vector   91  Occ=0.000000D+00  E= 2.619500D+00
              MO Center=  1.8D-01, -2.1D+00, -8.5D-01, r^2= 1.6D+00
   Bfn.  Coefficient  Atom+Function         Bfn.  Coefficient  Atom+Function  
  ----- ------------  ---------------      ----- ------------  ---------------
     6      1.984078  1 C  s                 41     -1.717174  3 O  py         
     5     -1.587272  1 C  s                 21     -1.174742  2 C  s          
    30     -1.126674  2 C  pz                38      1.095725  3 O  py         
    44      1.075730  3 O  py                 4      1.034171  1 C  s          
    48     -0.731480  4 H  s                 42     -0.576754  3 O  pz         
 
 Vector   92  Occ=0.000000D+00  E= 2.896170D+00
              MO Center=  1.8D-01, -2.1D+00, -8.0D-01, r^2= 1.4D+00
   Bfn.  Coefficient  Atom+Function         Bfn.  Coefficient  Atom+Function  
  ----- ------------  ---------------      ----- ------------  ---------------
     6      1.878169  1 C  s                 45      1.803090  3 O  pz         
    42     -1.685833  3 O  pz                30     -1.614200  2 C  pz         
     5     -1.268221  1 C  s                116     -1.174101  8 H  s          
    39      0.995984  3 O  pz               115      0.896212  8 H  s          
    48     -0.833182  4 H  s                  4      0.776248  1 C  s          
 
 Vector   93  Occ=0.000000D+00  E= 4.522792D+00
              MO Center=  1.8D-01, -2.1D+00, -8.7D-01, r^2= 8.5D-01
   Bfn.  Coefficient  Atom+Function         Bfn.  Coefficient  Atom+Function  
  ----- ------------  ---------------      ----- ------------  ---------------
    35      4.888696  3 O  s                 34     -3.860139  3 O  s          
    36     -3.645418  3 O  s                 21      1.460991  2 C  s          
    30      1.073422  2 C  pz                33      0.814452  3 O  s          
     6     -0.756170  1 C  s                 29     -0.746116  2 C  py         
    44     -0.642752  3 O  py               116      0.581409  8 H  s          
 
 Vector   94  Occ=0.000000D+00  E= 8.932198D+00
              MO Center= -4.1D-02,  4.4D-01,  3.8D-01, r^2= 3.5D+00
   Bfn.  Coefficient  Atom+Function         Bfn.  Coefficient  Atom+Function  
  ----- ------------  ---------------      ----- ------------  ---------------
    75      1.951397  6 Cl s                 53      1.799314  5 Cl s          
    97      1.802940  7 Cl s                 74     -1.626417  6 Cl s          
    52     -1.502518  5 Cl s                 96     -1.505598  7 Cl s          
    76     -1.278869  6 Cl s                 54     -1.168521  5 Cl s          
    98     -1.170754  7 Cl s                  6     -1.057742  1 C  s          
 
 Vector   95  Occ=0.000000D+00  E= 9.001655D+00
              MO Center= -4.6D-02,  1.0D+00, -3.5D-01, r^2= 2.7D+00
   Bfn.  Coefficient  Atom+Function         Bfn.  Coefficient  Atom+Function  
  ----- ------------  ---------------      ----- ------------  ---------------
    97     -2.308686  7 Cl s                 53      2.282799  5 Cl s          
    96      1.919515  7 Cl s                 52     -1.897909  5 Cl s          
    98      1.498740  7 Cl s                 54     -1.482348  5 Cl s          
    99     -1.123832  7 Cl s                 55      1.113067  5 Cl s          
    13      0.765676  1 C  px                95     -0.327166  7 Cl s          
 
 Vector   96  Occ=0.000000D+00  E= 9.035675D+00
              MO Center= -4.7D-02, -7.9D-03,  9.0D-01, r^2= 2.9D+00
   Bfn.  Coefficient  Atom+Function         Bfn.  Coefficient  Atom+Function  
  ----- ------------  ---------------      ----- ------------  ---------------
    75      2.599243  6 Cl s                 74     -2.150651  6 Cl s          
    76     -1.738591  6 Cl s                 53     -1.423449  5 Cl s          
    77      1.409565  6 Cl s                 97     -1.375247  7 Cl s          
    52      1.180016  5 Cl s                 96      1.140111  7 Cl s          
    54      0.942446  5 Cl s                 98      0.910228  7 Cl s          
 
 Vector   97  Occ=0.000000D+00  E= 1.148379D+01
              MO Center=  6.4D-02, -5.9D-01, -7.6D-01, r^2= 8.9D-01
   Bfn.  Coefficient  Atom+Function         Bfn.  Coefficient  Atom+Function  
  ----- ------------  ---------------      ----- ------------  ---------------
    18      2.685095  2 C  s                 19     -2.675389  2 C  s          
    20      2.134178  2 C  s                  4     -1.913414  1 C  s          
     3      1.852243  1 C  s                  5      1.734610  1 C  s          
     6     -1.703207  1 C  s                 17     -1.412977  2 C  s          
     2     -0.965686  1 C  s                 48      0.674943  4 H  s          
 
 Vector   98  Occ=0.000000D+00  E= 1.156162D+01
[...]
    79     -1.200576  6 Cl py                82      1.072201  6 Cl py         
    58      0.900896  5 Cl pz               102      0.872653  7 Cl pz         
    61     -0.805339  5 Cl pz               105     -0.780112  7 Cl pz         
   101     -0.739766  7 Cl py                57     -0.723145  5 Cl py         
 
 Vector  102  Occ=0.000000D+00  E= 4.070926D+01
              MO Center= -1.1D-02, -5.9D-01,  1.6D+00, r^2= 2.7D-01
   Bfn.  Coefficient  Atom+Function         Bfn.  Coefficient  Atom+Function  
  ----- ------------  ---------------      ----- ------------  ---------------
    79      2.188809  6 Cl py                82     -1.954735  6 Cl py         
    80      1.441071  6 Cl pz                83     -1.286817  6 Cl pz         
    85     -0.665019  6 Cl py                86     -0.438415  6 Cl pz         
    88      0.306149  6 Cl py                57     -0.250095  5 Cl py         
   101     -0.230285  7 Cl py                60      0.223515  5 Cl py         
 
 Vector  103  Occ=0.000000D+00  E= 4.071778D+01
              MO Center= -9.1D-02,  9.4D-01, -2.1D-01, r^2= 2.7D+00
   Bfn.  Coefficient  Atom+Function         Bfn.  Coefficient  Atom+Function  
  ----- ------------  ---------------      ----- ------------  ---------------
   100      1.671839  7 Cl px                56      1.648106  5 Cl px         
   103     -1.493606  7 Cl px                59     -1.472353  5 Cl px         
    78     -0.733956  6 Cl px                57      0.712960  5 Cl py         
    81      0.655307  6 Cl px                60     -0.637193  5 Cl py         
   106     -0.504538  7 Cl px                62     -0.497622  5 Cl px         
 
 Vector  104  Occ=0.000000D+00  E= 4.072530D+01
              MO Center= -1.6D-01,  1.1D+00, -3.6D-01, r^2= 2.5D+00
   Bfn.  Coefficient  Atom+Function         Bfn.  Coefficient  Atom+Function  
  ----- ------------  ---------------      ----- ------------  ---------------
    58      1.859379  5 Cl pz               102     -1.760164  7 Cl pz         
    61     -1.660979  5 Cl pz               105      1.572380  7 Cl pz         
    64     -0.562405  5 Cl pz               108      0.532238  7 Cl pz         
    57      0.499627  5 Cl py                60     -0.446410  5 Cl py         
   101     -0.349800  7 Cl py               104      0.312586  7 Cl py         
 
 Vector  105  Occ=0.000000D+00  E= 4.072917D+01
              MO Center= -9.8D-03,  1.0D+00, -2.8D-01, r^2= 2.6D+00
   Bfn.  Coefficient  Atom+Function         Bfn.  Coefficient  Atom+Function  
  ----- ------------  ---------------      ----- ------------  ---------------
    57      1.587082  5 Cl py               101      1.454548  7 Cl py         
    60     -1.417653  5 Cl py               104     -1.299320  7 Cl py         
   100     -0.930327  7 Cl px               103      0.830915  7 Cl px         
   102      0.724110  7 Cl pz               105     -0.646797  7 Cl pz         
    58      0.618535  5 Cl pz                56      0.603089  5 Cl px         
 
 Vector  106  Occ=0.000000D+00  E= 4.073719D+01
              MO Center= -3.2D-02,  9.8D-01, -2.5D-01, r^2= 2.7D+00
   Bfn.  Coefficient  Atom+Function         Bfn.  Coefficient  Atom+Function  
  ----- ------------  ---------------      ----- ------------  ---------------
   101     -1.779748  7 Cl py                57      1.647366  5 Cl py         
   104      1.589107  7 Cl py                60     -1.470917  5 Cl py         
    56     -0.651937  5 Cl px                78      0.624436  6 Cl px         
    59      0.581747  5 Cl px                81     -0.557180  6 Cl px         
   107      0.542211  7 Cl py                63     -0.501822  5 Cl py         
 
 Vector  107  Occ=0.000000D+00  E= 4.073860D+01
              MO Center= -1.3D-02,  7.3D-01,  4.0D-02, r^2= 3.1D+00
   Bfn.  Coefficient  Atom+Function         Bfn.  Coefficient  Atom+Function  
  ----- ------------  ---------------      ----- ------------  ---------------
   102      1.528344  7 Cl pz                58      1.421304  5 Cl pz         
   105     -1.364793  7 Cl pz                61     -1.269199  5 Cl pz         
    80     -0.998336  6 Cl pz                83      0.890284  6 Cl pz         
    56     -0.835005  5 Cl px               100      0.762007  7 Cl px         
    59      0.745503  5 Cl px               103     -0.680347  7 Cl px         
 
 Vector  108  Occ=0.000000D+00  E= 4.077277D+01
              MO Center= -3.9D-02,  7.8D-01, -2.3D-02, r^2= 3.0D+00
   Bfn.  Coefficient  Atom+Function         Bfn.  Coefficient  Atom+Function  
  ----- ------------  ---------------      ----- ------------  ---------------
    56      1.532482  5 Cl px               100     -1.462209  7 Cl px         
    59     -1.366464  5 Cl px               103      1.303826  7 Cl px         
    80     -0.905366  6 Cl pz               101     -0.873323  7 Cl py         
    83      0.806589  6 Cl pz               104      0.778699  7 Cl py         
    57     -0.656036  5 Cl py                79      0.609446  6 Cl py         
 
 Vector  109  Occ=0.000000D+00  E= 6.240224D+01
              MO Center=  2.8D-02, -2.5D-01, -4.0D-01, r^2= 5.9D-01
   Bfn.  Coefficient  Atom+Function         Bfn.  Coefficient  Atom+Function  
  ----- ------------  ---------------      ----- ------------  ---------------
     2      2.376518  1 C  s                  3     -1.813538  1 C  s          
    17      1.737891  2 C  s                  1     -1.404563  1 C  s          
    18     -1.315262  2 C  s                  4      1.216144  1 C  s          
     5     -1.045289  1 C  s                 16     -1.030634  2 C  s          
     6      0.989072  1 C  s                 19      0.837007  2 C  s          
 
 Vector  110  Occ=0.000000D+00  E= 6.250424D+01
              MO Center=  6.1D-02, -5.6D-01, -7.2D-01, r^2= 5.8D-01
   Bfn.  Coefficient  Atom+Function         Bfn.  Coefficient  Atom+Function  
  ----- ------------  ---------------      ----- ------------  ---------------
    17      2.373017  2 C  s                 18     -1.802874  2 C  s          
     2     -1.749791  1 C  s                 16     -1.404210  2 C  s          
     3      1.339489  1 C  s                 19      1.201980  2 C  s          
     1      1.031997  1 C  s                 20     -1.009751  2 C  s          
     4     -0.923880  1 C  s                  5      0.830376  1 C  s          
 
 Vector  111  Occ=0.000000D+00  E= 1.177713D+02
              MO Center=  1.9D-01, -2.2D+00, -8.8D-01, r^2= 4.6D-02
   Bfn.  Coefficient  Atom+Function         Bfn.  Coefficient  Atom+Function  
  ----- ------------  ---------------      ----- ------------  ---------------
    32      2.967489  3 O  s                 33     -2.268823  3 O  s          
    31     -1.755794  3 O  s                 34      1.423023  3 O  s          
    35     -1.060483  3 O  s                 36      0.646139  3 O  s          
    21     -0.252203  2 C  s                 30     -0.184733  2 C  pz         
    29      0.137362  2 C  py                 6      0.130707  1 C  s          
 
 Vector  112  Occ=0.000000D+00  E= 1.229966D+02
              MO Center= -4.4D-02,  3.5D-01,  4.9D-01, r^2= 3.1D+00
   Bfn.  Coefficient  Atom+Function         Bfn.  Coefficient  Atom+Function  
  ----- ------------  ---------------      ----- ------------  ---------------
    73      1.469925  6 Cl s                 51      1.219572  5 Cl s          
    95      1.215315  7 Cl s                 74     -1.116357  6 Cl s          
    72     -1.044372  6 Cl s                 52     -0.925075  5 Cl s          
    96     -0.921823  7 Cl s                 50     -0.866638  5 Cl s          
    94     -0.863616  7 Cl s                 75      0.754010  6 Cl s          
 
 Vector  113  Occ=0.000000D+00  E= 1.230308D+02
              MO Center= -3.9D-02,  1.1D+00, -3.6D-01, r^2= 2.4D+00
   Bfn.  Coefficient  Atom+Function         Bfn.  Coefficient  Atom+Function  
  ----- ------------  ---------------      ----- ------------  ---------------
    95     -1.614348  7 Cl s                 51      1.587676  5 Cl s          
    96      1.226312  7 Cl s                 52     -1.206081  5 Cl s          
    94      1.146939  7 Cl s                 50     -1.127986  5 Cl s          
    97     -0.828303  7 Cl s                 53      0.814680  5 Cl s          
    98      0.379190  7 Cl s                 54     -0.373037  5 Cl s          
 
 Vector  114  Occ=0.000000D+00  E= 1.230564D+02
              MO Center= -5.4D-02,  8.3D-02,  8.0D-01, r^2= 2.7D+00
   Bfn.  Coefficient  Atom+Function         Bfn.  Coefficient  Atom+Function  
  ----- ------------  ---------------      ----- ------------  ---------------
    73      1.722854  6 Cl s                 74     -1.312012  6 Cl s          
    72     -1.223635  6 Cl s                 51     -1.057580  5 Cl s          
    95     -1.021441  7 Cl s                 75      0.890790  6 Cl s          
    52      0.804388  5 Cl s                 96      0.776881  7 Cl s          
    50      0.751254  5 Cl s                 94      0.725585  7 Cl s          
 
 Vector  115  Occ=0.000000D+00  E= 8.995457D+02
              MO Center= -4.3D-02,  3.9D-01,  4.4D-01, r^2= 3.1D+00
   Bfn.  Coefficient  Atom+Function         Bfn.  Coefficient  Atom+Function  
  ----- ------------  ---------------      ----- ------------  ---------------
    72      1.474548  6 Cl s                 50      1.287697  5 Cl s          
    94      1.286385  7 Cl s                 71     -1.096665  6 Cl s          
    49     -0.957753  5 Cl s                 93     -0.956778  7 Cl s          
    73     -0.828877  6 Cl s                 51     -0.723723  5 Cl s          
    95     -0.722983  7 Cl s                 74      0.441359  6 Cl s          
 
 Vector  116  Occ=0.000000D+00  E= 8.995836D+02
              MO Center= -4.0D-02,  1.1D+00, -3.6D-01, r^2= 2.4D+00
   Bfn.  Coefficient  Atom+Function         Bfn.  Coefficient  Atom+Function  
  ----- ------------  ---------------      ----- ------------  ---------------
    94     -1.669729  7 Cl s                 50      1.643039  5 Cl s          
    93      1.241800  7 Cl s                 49     -1.221948  5 Cl s          
    95      0.938655  7 Cl s                 51     -0.923653  5 Cl s          
    96     -0.499987  7 Cl s                 52      0.492007  5 Cl s          
    97      0.323049  7 Cl s                 53     -0.317907  5 Cl s          
 
 Vector  117  Occ=0.000000D+00  E= 8.996132D+02
              MO Center= -5.4D-02,  4.0D-02,  8.6D-01, r^2= 2.6D+00
   Bfn.  Coefficient  Atom+Function         Bfn.  Coefficient  Atom+Function  
  ----- ------------  ---------------      ----- ------------  ---------------
    72      1.820486  6 Cl s                 71     -1.353756  6 Cl s          
    50     -1.063090  5 Cl s                 73     -1.023772  6 Cl s          
    94     -1.022296  7 Cl s                 49      0.790583  5 Cl s          
    93      0.760247  7 Cl s                 51      0.597741  5 Cl s          
    95      0.574801  7 Cl s                 74      0.546612  6 Cl s          
 

   alpha - beta orbital overlaps 
   ----------------------------- 


   alpha      1      2      3      4      5      6      7      8      9     10
    beta      1      2      3      4      5      6      7      8      9     10
 overlap   1.000  1.000  1.000  1.000  1.000  1.000  1.000  1.000  1.000  1.000


   alpha     11     12     13     14     15     16     17     18     19     20
    beta     11     12     13     14     15     17     16     18     19     20
 overlap   1.000  1.000  0.999  0.999  0.998  0.997  0.997  0.996  1.000  1.000


   alpha     21     22     23     24     25     26     27     28     29     30
    beta     21     22     23     24     25     26     27     28     29     30
 overlap   1.000  1.000  0.998  0.999  0.999  0.999  0.987  0.998  0.986  1.000


   alpha     31     32     33     34     35     36     37     38     39     40
    beta     31     32     33     34     35     36     37     38     39     41
 overlap   0.994  0.994  0.997  0.998  0.996  0.999  0.969  0.990  1.000  0.981


   alpha     41     42     43     44     45     46     47     48     49     50
    beta     40     42     43     44     45     46     47     48     49     50
 overlap   1.000  0.997  0.974  0.975  0.989  0.997  0.995  0.990  0.998  0.999


   alpha     51     52     53     54     55     56     57     58     59     60
    beta     51     52     53     54     55     56     57     58     59     60
 overlap   0.998  1.000  0.966  0.965  0.993  0.999  0.998  0.994  0.987  0.987


   alpha     61     62     63     64     65     66     67     68     69     70
    beta     61     62     63     64     65     66     67     68     69     70
 overlap   0.984  0.985  0.998  0.999  0.999  1.000  0.910  0.910  1.000  1.000


   alpha     71     72     73     74     75     76     77     78     79     80
    beta     71     72     73     74     75     76     77     78     79     80
 overlap   0.999  0.971  0.999  0.971  0.999  1.000  1.000  0.997  1.000  0.999


   alpha     81     82     83     84     85     86     87     88     89     90
    beta     81     83     82     84     85     87     86     88     89     90
 overlap   1.000  0.847  0.845  0.995  0.999  0.863  0.868  0.997  1.000  0.998


   alpha     91     92     93     94     95     96     97     98     99    100
    beta     91     92     93     94     95     96     97     98     99    100
 overlap   1.000  1.000  1.000  1.000  1.000  1.000  0.991  0.991  1.000  1.000


   alpha    101    102    103    104    105    106    107    108    109    110
    beta    101    102    103    104    105    106    107    108    109    110
 overlap   1.000  1.000  1.000  0.999  0.999  0.999  1.000  1.000  0.998  0.998


   alpha    111    112    113    114    115    116    117
    beta    111    112    113    114    115    116    117
 overlap   1.000  1.000  1.000  1.000  1.000  1.000  1.000

     --------------------------
     Expectation value of S2:  
     --------------------------
      <S2> =      0.7526 (Exact =     0.7500)
 

 center of mass
 --------------
 x =  -0.00536838 y =   0.05858005 z =   0.03789319

 moments of inertia (a.u.)
 ------------------
        1161.484205644108           5.519515044945          -6.688241872100
           5.519515044945        1078.093620357394          68.328305467242
          -6.688241872100          68.328305467242        1263.747395456974
 
     Multipole analysis of the density
     ---------------------------------
 
     L   x y z        total         alpha         beta         nuclear
     -   - - -        -----         -----         ----         -------
     0   0 0 0     -0.000000    -37.000000    -36.000000     73.000000
 
     1   1 0 0      0.035184     -0.063915      0.099098     -0.000000
     1   0 1 0     -0.608287      0.435434     -1.043721     -0.000000
     1   0 0 1      0.122936      0.912473     -0.789537      0.000000
 
     2   2 0 0    -42.999824   -166.639797   -163.389140    287.029113
     2   1 1 0     -0.041232      2.166046      1.818951     -4.026228
     2   1 0 1      0.143721     -1.131100     -1.379582      2.654403
     2   0 2 0    -41.532057   -196.235303   -189.324404    344.027650
     2   0 1 1     -2.730880     11.442611     14.682828    -28.856319
     2   0 0 2    -40.928715   -145.795567   -142.133874    247.000726
 

 Task  times  cpu:        4.9s     wall:        5.2s
 
 
                                NWChem Input Module
                                -------------------
 
 
 Summary of allocated global arrays
-----------------------------------
  No active global arrays



                         GA Statistics for process    0
                         ------------------------------

       create   destroy   get      put      acc     scatter   gather  read&inc
calls:  329      329     9974     2585     6632        0        0      452     
number of processes/call 2.74e+01 6.18e+01 1.83e+01 0.00e+00 0.00e+00
bytes total:             7.81e+07 1.16e+07 3.97e+07 0.00e+00 0.00e+00 3.62e+03
bytes remote:            6.28e+07 6.03e+06 3.39e+07 0.00e+00 0.00e+00 0.00e+00
Max memory consumed for GA by this process: 1038088 bytes
 
 
 
                                     CITATION
                                     --------
                Please cite the following reference when publishing
                           results obtained with NWChem:
 
          E. Apr, E. J. Bylaska, W. A. de Jong, N. Govind, K. Kowalski,
       T. P. Straatsma, M. Valiev, H. J. J. van Dam, Y. Alexeev, J. Anchell,
       V. Anisimov, F. W. Aquino, R. Atta-Fynn, J. Autschbach, N. P. Bauman,
     J. C. Becca, D. E. Bernholdt, K. Bhaskaran-Nair, S. Bogatko, P. Borowski,
        J. Boschen, J. Brabec, A. Bruner, E. Caut, Y. Chen, G. N. Chuev,
      C. J. Cramer, J. Daily, M. J. O. Deegan, T. H. Dunning Jr., M. Dupuis,
   K. G. Dyall, G. I. Fann, S. A. Fischer, A. Fonari, H. Frchtl, L. Gagliardi,
      J. Garza, N. Gawande, S. Ghosh, K. Glaesemann, A. W. Gtz, J. Hammond,
       V. Helms, E. D. Hermes, K. Hirao, S. Hirata, M. Jacquelin, L. Jensen,
   B. G. Johnson, H. Jnsson, R. A. Kendall, M. Klemm, R. Kobayashi, V. Konkov,
      S. Krishnamoorthy, M. Krishnan, Z. Lin, R. D. Lins, R. J. Littlefield,
      A. J. Logsdail, K. Lopata, W. Ma, A. V. Marenich, J. Martin del Campo,
   D. Mejia-Rodriguez, J. E. Moore, J. M. Mullin, T. Nakajima, D. R. Nascimento,
    J. A. Nichols, P. J. Nichols, J. Nieplocha, A. Otero-de-la-Roza, B. Palmer,
    A. Panyala, T. Pirojsirikul, B. Peng, R. Peverati, J. Pittner, L. Pollack,
   R. M. Richard, P. Sadayappan, G. C. Schatz, W. A. Shelton, D. W. Silverstein,
   D. M. A. Smith, T. A. Soares, D. Song, M. Swart, H. L. Taylor, G. S. Thomas,
            V. Tipparaju, D. G. Truhlar, K. Tsemekhman, T. Van Voorhis,
     . Vzquez-Mayagoitia, P. Verma, O. Villa, A. Vishnu, K. D. Vogiatzis,
        D. Wang, J. H. Weare, M. J. Williamson, T. L. Windus, K. Woliski,
        A. T. Wong, Q. Wu, C. Yang, Q. Yu, M. Zacharias, Z. Zhang, Y. Zhao,
                                and R. J. Harrison
                        "NWChem: Past, present, and future
                         J. Chem. Phys. 152, 184102 (2020)
                               doi:10.1063/5.0004997
 
                                      AUTHORS
                                      -------
     E. Apra, E. J. Bylaska, N. Govind, K. Kowalski, M. Valiev, W. A. de Jong,
      T. P. Straatsma, H. J. J. van Dam, D. Wang, T. L. Windus, N. P. Bauman,
       A. Panyala, J. Hammond, J. Autschbach, K. Bhaskaran-Nair, J. Brabec,
    K. Lopata, S. A. Fischer, S. Krishnamoorthy, M. Jacquelin, W. Ma, M. Klemm,
       O. Villa, Y. Chen, V. Anisimov, F. Aquino, S. Hirata, M. T. Hackler,
           Eric Hermes, L. Jensen, J. E. Moore, J. C. Becca, V. Konjkov,
            D. Mejia-Rodriguez, T. Risthaus, M. Malagoli, A. Marenich,
   A. Otero-de-la-Roza, J. Mullin, P. Nichols, R. Peverati, J. Pittner, Y. Zhao,
        P.-D. Fan, A. Fonari, M. J. Williamson, R. J. Harrison, J. R. Rehr,
      M. Dupuis, D. Silverstein, D. M. A. Smith, J. Nieplocha, V. Tipparaju,
      M. Krishnan, B. E. Van Kuiken, A. Vazquez-Mayagoitia, M. Swart, Q. Wu,
   T. Van Voorhis, A. A. Auer, M. Nooijen, L. D. Crosby, E. Brown, G. Cisneros,
     G. I. Fann, H. Fruchtl, J. Garza, K. Hirao, R. A. Kendall, J. A. Nichols,
       K. Tsemekhman, K. Wolinski, J. Anchell, D. E. Bernholdt, P. Borowski,
       T. Clark, D. Clerc, H. Dachsel, M. J. O. Deegan, K. Dyall, D. Elwood,
      E. Glendening, M. Gutowski, A. C. Hess, J. Jaffe, B. G. Johnson, J. Ju,
        R. Kobayashi, R. Kutteh, Z. Lin, R. Littlefield, X. Long, B. Meng,
      T. Nakajima, S. Niu, L. Pollack, M. Rosing, K. Glaesemann, G. Sandrone,
      M. Stave, H. Taylor, G. Thomas, J. H. van Lenthe, A. T. Wong, Z. Zhang.

 Total times  cpu:        4.9s     wall:        5.3s
