 
             Northwest Computational Chemistry Package (NWChem) 7.0.0
             --------------------------------------------------------
 
 
                    Environmental Molecular Sciences Laboratory
                       Pacific Northwest National Laboratory
                                Richland, WA 99352
 
                              Copyright (c) 1994-2020
                       Pacific Northwest National Laboratory
                            Battelle Memorial Institute
 
             NWChem is an open-source computational chemistry package
                        distributed under the terms of the
                      Educational Community License (ECL) 2.0
             A copy of the license is included with this distribution
                              in the LICENSE.TXT file
 
                                  ACKNOWLEDGMENT
                                  --------------

            This software and its documentation were developed at the
            EMSL at Pacific Northwest National Laboratory, a multiprogram
            national laboratory, operated for the U.S. Department of Energy
            by Battelle under Contract Number DE-AC05-76RL01830. Support
            for this work was provided by the Department of Energy Office
            of Biological and Environmental Research, Office of Basic
            Energy Sciences, and the Office of Advanced Scientific Computing.


                                NWChem Input Module
                                -------------------
 
 
 Summary of "ao basis" -> "" (spherical)
 ------------------------------------------------------------------------------
       Tag                 Description            Shells   Functions and Types
 ---------------- ------------------------------  ------  ---------------------
 *                        ahlrichs_vtz                on all atoms 



 Scaling coordinates for geometry "geometry" by  1.889725989
 (inverse scale =  0.529177249)

 
 
                             Geometry "geometry" -> ""
                             -------------------------
 
 Output coordinates in angstroms (scale by  1.889725989 to convert to a.u.)
 
  No.       Tag          Charge          X              Y              Z
 ---- ---------------- ---------- -------------- -------------- --------------
    1 C                    6.0000     0.30984579    -0.30197740    -0.93097775
    2 C                    6.0000     1.51718689    -0.50702506    -0.38371489
    3 H                    1.0000     1.71874824    -0.31687404     0.67224682
    4 H                    1.0000     2.35558335    -0.87574971    -0.97691182
    5 C                    6.0000    -0.92326496     0.20281730    -0.22030980
    6 H                    1.0000     0.17174794    -0.51238308    -1.99879055
    7 C                    6.0000    -0.75339037     0.50377803     1.27301478
    8 H                    1.0000    -1.27942190     1.11078366    -0.74248944
    9 H                    1.0000    -1.73322720    -0.53795622    -0.35861911
   10 H                    1.0000     0.01155542     1.27697081     1.44023676
   11 H                    1.0000    -0.45028357    -0.39563704     1.82989373
   12 H                    1.0000    -1.69696641     0.86528851     1.70635961
 
      Atomic Mass 
      ----------- 
 
      C                 12.000000
      H                  1.007825
 

 Effective nuclear repulsion energy (a.u.)     118.0282529360

            Nuclear Dipole moment (a.u.) 
            ----------------------------
        X                 Y               Z
 ---------------- ---------------- ----------------
    -0.0000000000    -0.0000000000     0.0000000000
 
 
            XYZ format geometry
            -------------------
    12
 geometry
 C                     0.30984579    -0.30197740    -0.93097775
 C                     1.51718689    -0.50702506    -0.38371489
 H                     1.71874824    -0.31687404     0.67224682
 H                     2.35558335    -0.87574971    -0.97691182
 C                    -0.92326496     0.20281730    -0.22030980
 H                     0.17174794    -0.51238308    -1.99879055
 C                    -0.75339037     0.50377803     1.27301478
 H                    -1.27942190     1.11078366    -0.74248944
 H                    -1.73322720    -0.53795622    -0.35861911
 H                     0.01155542     1.27697081     1.44023676
 H                    -0.45028357    -0.39563704     1.82989373
 H                    -1.69696641     0.86528851     1.70635961
 
 ==============================================================================
                                internuclear distances
 ------------------------------------------------------------------------------
       center one      |      center two      | atomic units |  angstroms
 ------------------------------------------------------------------------------
    2 C                |   1 C                |     2.53478  |     1.34135
    3 H                |   2 C                |     2.06304  |     1.09171
    4 H                |   2 C                |     2.06210  |     1.09121
    5 C                |   1 C                |     2.85369  |     1.51011
    6 H                |   1 C                |     2.07316  |     1.09707
    7 C                |   5 C                |     2.89656  |     1.53279
    8 H                |   5 C                |     2.09062  |     1.10631
    9 H                |   5 C                |     2.09062  |     1.10631
   10 H                |   7 C                |     2.07950  |     1.10042
   11 H                |   7 C                |     2.07950  |     1.10043
   12 H                |   7 C                |     2.07768  |     1.09946
 ------------------------------------------------------------------------------
                         number of included internuclear distances:         11
 ==============================================================================



 ==============================================================================
                                 internuclear angles
 ------------------------------------------------------------------------------
        center 1       |       center 2       |       center 3       |  degrees
 ------------------------------------------------------------------------------
    2 C                |   1 C                |   5 C                |   126.45
    2 C                |   1 C                |   6 H                |   118.76
    5 C                |   1 C                |   6 H                |   114.80
    1 C                |   2 C                |   3 H                |   122.29
    1 C                |   2 C                |   4 H                |   121.43
    3 H                |   2 C                |   4 H                |   116.28
    1 C                |   5 C                |   7 C                |   115.70
    1 C                |   5 C                |   8 H                |   108.37
    1 C                |   5 C                |   9 H                |   108.37
    7 C                |   5 C                |   8 H                |   109.53
    7 C                |   5 C                |   9 H                |   109.54
    8 H                |   5 C                |   9 H                |   104.76
    5 C                |   7 C                |  10 H                |   111.29
    5 C                |   7 C                |  11 H                |   111.29
    5 C                |   7 C                |  12 H                |   110.70
   10 H                |   7 C                |  11 H                |   107.81
   10 H                |   7 C                |  12 H                |   107.80
   11 H                |   7 C                |  12 H                |   107.80
 ------------------------------------------------------------------------------
                            number of included internuclear angles:         18
 ==============================================================================



                              Aldehyde and Ketone set
                              -----------------------
 
                                 NWChem DFT Module
                                 -----------------
 
 
                              Aldehyde and Ketone set
 
 
                      Basis "ao basis" -> "ao basis" (spherical)
                      -----
  C (Carbon)
  ----------
            Exponent  Coefficients 
       -------------- ---------------------------------------------------------
  1 S  8.50603840E+03  0.000534
  1 S  1.27573290E+03  0.004125
  1 S  2.90311870E+02  0.021171
  1 S  8.20562000E+01  0.082418
  1 S  2.64796410E+01  0.240129
 
  2 S  9.24145850E+00  1.000000
 
  3 S  3.36435300E+00  1.000000
 
  4 S  8.71741640E-01  1.000000
 
  5 S  3.63523520E-01  1.000000
 
  6 S  1.28731350E-01  1.000000
 
  7 P  3.47094960E+01  0.005330
  7 P  7.95908830E+00  0.035866
  7 P  2.37869720E+00  0.142003
  7 P  8.15400650E-01  0.342031
 
  8 P  2.89537850E-01  1.000000
 
  9 P  1.00847540E-01  1.000000
 
  H (Hydrogen)
  ------------
            Exponent  Coefficients 
       -------------- ---------------------------------------------------------
  1 S  3.40613410E+01  0.006025
  1 S  5.12357460E+00  0.045021
  1 S  1.16466260E+00  0.201897
 
  2 S  3.27230410E-01  1.000000
 
  3 S  1.03072410E-01  1.000000
 


 Summary of "ao basis" -> "ao basis" (spherical)
 ------------------------------------------------------------------------------
       Tag                 Description            Shells   Functions and Types
 ---------------- ------------------------------  ------  ---------------------
 C                        ahlrichs vtz               9       15   6s3p
 H                        ahlrichs vtz               3        3   3s




 Summary of "ao basis" -> "ao basis" (spherical)
 ------------------------------------------------------------------------------
       Tag                 Description            Shells   Functions and Types
 ---------------- ------------------------------  ------  ---------------------
 C                        ahlrichs vtz               9       15   6s3p
 H                        ahlrichs vtz               3        3   3s


  Caching 1-el integrals 
 
            General Information
            -------------------
          SCF calculation type: DFT
          Wavefunction type:  spin polarized.
          No. of atoms     :    12
          No. of electrons :    33
           Alpha electrons :    17
            Beta electrons :    16
          Charge           :    -1
          Spin multiplicity:     2
          Use of symmetry is: off; symmetry adaption is: off
          Maximum number of iterations: 999
          This is a Direct SCF calculation.
          AO basis - number of functions:    84
                     number of shells:    60
          Convergence on energy requested:  1.00D-08
          Convergence on density requested:  1.00D-07
          Convergence on gradient requested:  1.00D-06
 
              XC Information
              --------------
                        PBE96 Method XC Functional
          PerdewBurkeErnzerhof Exchange Functional  1.000          
            Perdew 1991 LDA Correlation Functional  1.000 local    
           PerdewBurkeErnz. Correlation Functional  1.000 non-local
 
             Grid Information
             ----------------
          Grid used for XC integration:  fine      
          Radial quadrature: Mura-Knowles        
          Angular quadrature: Lebedev. 
          Tag              B.-S. Rad. Rad. Pts. Rad. Cut. Ang. Pts.
          ---              ---------- --------- --------- ---------
          C                   0.70       70          12.0       590
          H                   0.35       60          13.0       590
          Grid pruning is: on 
          Number of quadrature shells:   760
          Spatial weights used:  Erf1
 
          Convergence Information
          -----------------------
          Convergence aids based upon iterative change in 
          total energy or number of iterations. 
          Levelshifting, if invoked, occurs when the 
          HOMO/LUMO gap drops below (HL_TOL):  1.00D-02
          DIIS, if invoked, will attempt to extrapolate 
          using up to (NFOCK): 10 stored Fock matrices.

                    Damping( 0%)  Levelshifting(0.5)       DIIS
                  --------------- ------------------- ---------------
          dE  on:    start            ASAP                start   
          dE off:    2 iters        999 iters           999 iters 

 
      Screening Tolerance Information
      -------------------------------
          Density screening/tol_rho:  1.00D-12
          AO Gaussian exp screening on grid/accAOfunc:  18
          CD Gaussian exp screening on grid/accCDfunc:  20
          XC Gaussian exp screening on grid/accXCfunc:  20
          Schwarz screening/accCoul:  1.00D-12

      Dispersion Parameters
      ---------------------

           DFT-D3BJ Model   
          s6 scale factor  :        1.000000000000
          s8 scale factor  :        0.787500000000
          a1 parameter     :        0.428900000000
          a2 parameter     :        4.440700000000
              vdW contrib  :       -0.007903065604


 Forcing the number of linearly dependent vectors to be  0
 
      Superposition of Atomic Density Guess
      -------------------------------------
 
 Sum of atomic energies:        -154.68305411
   Time after variat. SCF:      0.3
   Time prior to 1st pass:      0.3

 Grid_pts file          = ./14_EtCHCH2.gridpts.00
 Record size in doubles =  12289        No. of grid_pts per rec  =   3070
 Max. records in memory =     12        Max. recs in file   =  67550051

 Grid integrated density:      31.999976930591
 Requested integration accuracy:   0.10E-06

           Memory utilization after 1st SCF pass: 
           Heap Space remaining (MW):        0.00                 218
          Stack Space remaining (MW):      288.36           288357196

   convergence    iter        energy       DeltaE   RMS-Dens  Diis-err    time
 ---------------- ----- ----------------- --------- --------- ---------  ------
 d= 0,ls=0.0,diis     1   -157.3847242732 -2.75D+02  1.78D-02  1.18D+01     0.6
                                                     1.50D-02  1.04D+01
 Grid integrated density:      32.999991327952
 Requested integration accuracy:   0.10E-06
 d= 0,ls=0.0,diis     2   -156.4951690370  8.90D-01  1.62D-01  7.37D-01     0.9
                                                     1.64D-01  6.60D-01
 Grid integrated density:      32.999988757311
 Requested integration accuracy:   0.10E-06
 d= 0,ls=0.0,diis     3   -154.8153278534  1.68D+00  1.62D-01  2.70D+00     1.3
                                                     1.64D-01  2.31D+00
 Grid integrated density:      32.999990132415
 Requested integration accuracy:   0.10E-06
 d= 0,ls=0.0,diis     4   -156.8388152949 -2.02D+00  1.08D-01  1.16D-01     1.6
                                                     4.63D-03  1.11D-01
 Grid integrated density:      32.999989094318
 Requested integration accuracy:   0.10E-06
 d= 0,ls=0.5,diis     5   -156.8533960422 -1.46D-02  4.77D-03  8.58D-02     2.0
                                                     8.82D-04  9.07D-02
 Grid integrated density:      32.999989011993
 Requested integration accuracy:   0.10E-06
 d= 0,ls=0.5,diis     6   -156.8826030310 -2.92D-02  4.08D-03  3.40D-02     2.4
                                                     9.18D-04  3.63D-02
 Grid integrated density:      32.999988695223
 Requested integration accuracy:   0.10E-06
 d= 0,ls=0.5,diis     7   -156.8964415923 -1.38D-02  4.06D-03  1.50D-02     2.7
                                                     9.15D-04  1.61D-02
 Grid integrated density:      32.999988312628
 Requested integration accuracy:   0.10E-06
 d= 0,ls=0.5,diis     8   -156.9044260416 -7.98D-03  4.02D-03  5.27D-03     3.1
                                                     6.19D-04  5.33D-03
 Grid integrated density:      32.999988049776
 Requested integration accuracy:   0.10E-06
 d= 0,ls=0.5,diis     9   -156.9077551652 -3.33D-03  4.18D-03  1.54D-03     3.4
                                                     3.80D-04  1.31D-03
 Grid integrated density:      32.999987888720
 Requested integration accuracy:   0.10E-06
 d= 0,ls=0.5,diis    10   -156.9090480593 -1.29D-03  4.12D-03  4.78D-04     3.8
                                                     2.04D-04  2.34D-04
 Grid integrated density:      32.999987814322
 Requested integration accuracy:   0.10E-06
 d= 0,ls=0.5,diis    11   -156.9096199375 -5.72D-04  3.91D-03  2.48D-04     4.1
                                                     1.07D-04  4.21D-05
 Grid integrated density:      32.999987791684
 Requested integration accuracy:   0.10E-06
 d= 0,ls=0.5,diis    12   -156.9099873445 -3.67D-04  3.63D-03  1.81D-04     4.5
                                                     9.14D-05  9.35D-06
 Grid integrated density:      32.999987797150
 Requested integration accuracy:   0.10E-06
 d= 0,ls=0.5,diis    13   -156.9102579718 -2.71D-04  3.32D-03  1.67D-04     4.9
                                                     5.75D-05  1.20D-05
 Grid integrated density:      32.999987814277
 Requested integration accuracy:   0.10E-06
 d= 0,ls=0.5,diis    14   -156.9104962693 -2.38D-04  3.02D-03  1.46D-04     5.2
                                                     1.81D-04  1.16D-05
 Grid integrated density:      32.999987819820
 Requested integration accuracy:   0.10E-06
 d= 0,ls=0.5,diis    15   -156.9106103538 -1.14D-04  2.59D-03  2.11D-04     5.6
                                                     1.12D-04  6.48D-05
 Grid integrated density:      32.999987831605
 Requested integration accuracy:   0.10E-06
 d= 0,ls=0.5,diis    16   -156.9107183404 -1.08D-04  2.28D-03  2.48D-04     6.0
                                                     6.48D-05  1.02D-04
 Grid integrated density:      32.999987844840
 Requested integration accuracy:   0.10E-06
 d= 0,ls=0.5,diis    17   -156.9108384348 -1.20D-04  2.09D-03  2.48D-04     6.3
                                                     7.56D-05  1.11D-04
 Grid integrated density:      32.999987854924
 Requested integration accuracy:   0.10E-06
 d= 0,ls=0.5,diis    18   -156.9109184184 -8.00D-05  1.88D-03  2.73D-04     6.7
                                                     5.01D-05  1.40D-04
 Grid integrated density:      32.999987864895
 Requested integration accuracy:   0.10E-06
 d= 0,ls=0.5,diis    19   -156.9110066838 -8.83D-05  1.73D-03  2.73D-04     7.0
                                                     3.85D-05  1.47D-04
 Grid integrated density:      32.999987874576
 Requested integration accuracy:   0.10E-06
 d= 0,ls=0.5,diis    20   -156.9110879678 -8.13D-05  1.61D-03  2.70D-04     7.4
                                                     3.34D-05  1.53D-04
 Grid integrated density:      32.999987883582
 Requested integration accuracy:   0.10E-06
 d= 0,ls=0.5,diis    21   -156.9111623472 -7.44D-05  1.48D-03  2.63D-04     7.7
                                                     2.49D-05  1.54D-04
 Grid integrated density:      32.999987891684
 Requested integration accuracy:   0.10E-06
 d= 0,ls=0.5,diis    22   -156.9112347247 -7.24D-05  1.38D-03  2.50D-04     8.1
                                                     1.34D-05  1.48D-04
 Grid integrated density:      32.999987901203
 Requested integration accuracy:   0.10E-06
 d= 0,ls=0.5,diis    23   -156.9113096116 -7.49D-05  1.36D-03  2.29D-04     8.4
                                                     1.65D-05  1.38D-04
 Grid integrated density:      32.999987911267
 Requested integration accuracy:   0.10E-06
 d= 0,ls=0.5,diis    24   -156.9113917440 -8.21D-05  1.30D-03  1.95D-04     8.8
                                                     8.63D-06  1.15D-04
 Grid integrated density:      32.999987921706
 Requested integration accuracy:   0.10E-06
 d= 0,ls=0.5,diis    25   -156.9114613140 -6.96D-05  1.23D-03  1.70D-04     9.1
                                                     1.05D-05  9.80D-05
 Grid integrated density:      32.999987931189
 Requested integration accuracy:   0.10E-06
 d= 0,ls=0.5,diis    26   -156.9115191634 -5.78D-05  1.16D-03  1.52D-04     9.5
                                                     6.32D-06  8.76D-05
 Grid integrated density:      32.999987941091
 Requested integration accuracy:   0.10E-06
 d= 0,ls=0.5,diis    27   -156.9115741929 -5.50D-05  1.08D-03  1.33D-04     9.8
                                                     1.87D-05  7.57D-05
 Grid integrated density:      32.999987947844
 Requested integration accuracy:   0.10E-06
 d= 0,ls=0.5,diis    28   -156.9116102568 -3.61D-05  9.99D-04  1.31D-04    10.2
                                                     5.72D-06  7.69D-05
 Grid integrated density:      32.999987958193
 Requested integration accuracy:   0.10E-06
 d= 0,ls=0.5,diis    29   -156.9116540989 -4.38D-05  9.53D-04  1.15D-04    10.6
                                                     1.80D-05  6.69D-05
 Grid integrated density:      32.999987965505
 Requested integration accuracy:   0.10E-06
 d= 0,ls=0.5,diis    30   -156.9116824366 -2.83D-05  9.11D-04  1.12D-04    10.9
                                                     3.43D-05  6.71D-05
 Grid integrated density:      32.999987970040
 Requested integration accuracy:   0.10E-06
 d= 0,ls=0.5,diis    31   -156.9116939601 -1.15D-05  8.15D-04  1.24D-04    11.3
                                                     2.22D-05  7.96D-05
 Grid integrated density:      32.999987975239
 Requested integration accuracy:   0.10E-06
 d= 0,ls=0.5,diis    32   -156.9117109785 -1.70D-05  7.15D-04  1.26D-04    11.6
                                                     1.06D-05  8.29D-05
 Grid integrated density:      32.999987986175
 Requested integration accuracy:   0.10E-06
 d= 0,ls=0.5,diis    33   -156.9117473349 -3.64D-05  7.02D-04  1.05D-04    12.0
                                                     8.46D-06  6.77D-05
 Grid integrated density:      32.999987989893
 Requested integration accuracy:   0.10E-06
 d= 0,ls=0.5,diis    34   -156.9117724523 -2.51D-05  6.66D-04  9.44D-05    12.4
                                                     3.55D-06  6.00D-05
 Grid integrated density:      32.999987996952
 Requested integration accuracy:   0.10E-06
 d= 0,ls=0.5,diis    35   -156.9117963371 -2.39D-05  6.43D-04  8.40D-05    12.7
                                                     6.18D-06  5.30D-05
 Grid integrated density:      32.999988003004
 Requested integration accuracy:   0.10E-06
 d= 0,ls=0.5,diis    36   -156.9118151302 -1.88D-05  5.91D-04  7.88D-05    13.1
                                                     5.19D-06  5.04D-05
 Grid integrated density:      32.999988009065
 Requested integration accuracy:   0.10E-06
 d= 0,ls=0.5,diis    37   -156.9118342589 -1.91D-05  5.73D-04  6.99D-05    13.4
                                                     3.83D-06  4.44D-05
 Grid integrated density:      32.999988016523
 Requested integration accuracy:   0.10E-06
 d= 0,ls=0.5,diis    38   -156.9118513952 -1.71D-05  5.46D-04  6.32D-05    13.8
                                                     2.81D-06  4.05D-05
 Grid integrated density:      32.999988024060
 Requested integration accuracy:   0.10E-06
 d= 0,ls=0.5,diis    39   -156.9118672974 -1.59D-05  5.19D-04  5.65D-05    14.2
                                                     5.46D-06  3.62D-05
 Grid integrated density:      32.999988030346
 Requested integration accuracy:   0.10E-06
 d= 0,ls=0.5,diis    40   -156.9118799667 -1.27D-05  4.90D-04  5.24D-05    14.5
                                                     3.58D-06  3.39D-05
 Grid integrated density:      32.999988037140
 Requested integration accuracy:   0.10E-06
 d= 0,ls=0.5,diis    41   -156.9118930004 -1.30D-05  4.65D-04  4.68D-05    14.9
                                                     6.54D-06  3.03D-05
 Grid integrated density:      32.999988045594
 Requested integration accuracy:   0.10E-06
 d= 0,ls=0.5,diis    42   -156.9119077909 -1.48D-05  4.49D-04  3.87D-05    15.2
                                                     1.04D-05  2.44D-05
 Grid integrated density:      32.999988054087
 Requested integration accuracy:   0.10E-06
 d= 0,ls=0.5,diis    43   -156.9119225808 -1.48D-05  4.44D-04  3.02D-05    15.6
                                                     9.56D-06  1.82D-05
 Grid integrated density:      32.999988063001
 Requested integration accuracy:   0.10E-06
 d= 0,ls=0.5,diis    44   -156.9119354255 -1.28D-05  4.31D-04  2.34D-05    15.9
                                                     3.48D-06  1.33D-05
 Grid integrated density:      32.999988069275
 Requested integration accuracy:   0.10E-06
 d= 0,ls=0.5,diis    45   -156.9119445904 -9.16D-06  4.14D-04  1.95D-05    16.3
                                                     4.29D-06  1.09D-05
 Grid integrated density:      32.999988076503
 Requested integration accuracy:   0.10E-06
 d= 0,ls=0.5,diis    46   -156.9119532294 -8.64D-06  3.96D-04  1.59D-05    16.6
                                                     2.25D-06  8.60D-06
 Grid integrated density:      32.999988082814
 Requested integration accuracy:   0.10E-06
 d= 0,ls=0.5,diis    47   -156.9119599724 -6.74D-06  3.82D-04  1.35D-05    17.0
                                                     7.44D-06  7.02D-06
 Grid integrated density:      32.999988087675
 Requested integration accuracy:   0.10E-06
 d= 0,ls=0.5,diis    48   -156.9119640938 -4.12D-06  3.53D-04  1.35D-05    17.3
                                                     9.51D-06  7.49D-06
 Grid integrated density:      32.999988091616
 Requested integration accuracy:   0.10E-06
 d= 0,ls=0.5,diis    49   -156.9119672828 -3.19D-06  3.24D-04  1.38D-05    17.6
                                                     5.90D-06  7.98D-06
 Grid integrated density:      32.999988095934
 Requested integration accuracy:   0.10E-06
 d= 0,ls=0.5,diis    50   -156.9119708103 -3.53D-06  3.01D-04  1.32D-05    18.0
                                                     3.70D-06  7.79D-06
 Grid integrated density:      32.999988099912
 Requested integration accuracy:   0.10E-06
 d= 0,ls=0.5,diis    51   -156.9119744893 -3.68D-06  2.86D-04  1.21D-05    18.3
                                                     3.42D-06  7.11D-06
 Grid integrated density:      32.999988103977
 Requested integration accuracy:   0.10E-06
 d= 0,ls=0.5,diis    52   -156.9119776970 -3.21D-06  2.69D-04  1.12D-05    18.7
                                                     2.20D-06  6.65D-06
 Grid integrated density:      32.999988108027
 Requested integration accuracy:   0.10E-06
 d= 0,ls=0.5,diis    53   -156.9119808566 -3.16D-06  2.55D-04  1.01D-05    19.0
                                                     2.24D-06  5.98D-06
 Grid integrated density:      32.999988111703
 Requested integration accuracy:   0.10E-06
 d= 0,ls=0.5,diis    54   -156.9119836566 -2.80D-06  2.41D-04  9.23D-06    19.4
                                                     4.20D-06  5.47D-06
 Grid integrated density:      32.999988114645
 Requested integration accuracy:   0.10E-06
 d= 0,ls=0.5,diis    55   -156.9119857231 -2.07D-06  2.30D-04  8.88D-06    19.7
                                                     4.18D-06  5.39D-06
 Grid integrated density:      32.999988117190
 Requested integration accuracy:   0.10E-06
 d= 0,ls=0.5,diis    56   -156.9119876133 -1.89D-06  2.20D-04  8.56D-06    20.1
                                                     3.46D-06  5.30D-06
 Grid integrated density:      32.999988119301
 Requested integration accuracy:   0.10E-06
 d= 0,ls=0.5,diis    57   -156.9119896502 -2.04D-06  2.05D-04  7.80D-06    20.4
                                                     1.40D-06  4.82D-06
 Grid integrated density:      32.999988122244
 Requested integration accuracy:   0.10E-06
 d= 0,ls=0.5,diis    58   -156.9119917226 -2.07D-06  1.95D-04  6.93D-06    20.8
                                                     2.98D-06  4.25D-06
 Grid integrated density:      32.999988124954
 Requested integration accuracy:   0.10E-06
 d= 0,ls=0.5,diis    59   -156.9119933876 -1.66D-06  1.84D-04  6.43D-06    21.1
                                                     1.97D-06  4.02D-06
 Grid integrated density:      32.999988127948
 Requested integration accuracy:   0.10E-06
 d= 0,ls=0.5,diis    60   -156.9119950369 -1.65D-06  1.74D-04  5.77D-06    21.5
                                                     1.32D-06  3.63D-06
 Grid integrated density:      32.999988130775
 Requested integration accuracy:   0.10E-06
 d= 0,ls=0.5,diis    61   -156.9119965832 -1.55D-06  1.64D-04  5.11D-06    21.9
                                                     2.18D-06  3.21D-06
 Grid integrated density:      32.999988133458
 Requested integration accuracy:   0.10E-06
 d= 0,ls=0.5,diis    62   -156.9119977159 -1.13D-06  1.55D-04  4.83D-06    22.2
                                                     1.96D-06  3.10D-06
 Grid integrated density:      32.999988136372
 Requested integration accuracy:   0.10E-06
 d= 0,ls=0.5,diis    63   -156.9119991081 -1.39D-06  1.50D-04  4.12D-06    22.6
                                                     1.17D-06  2.65D-06
 Grid integrated density:      32.999988139188
 Requested integration accuracy:   0.10E-06
 d= 0,ls=0.5,diis    64   -156.9120003079 -1.20D-06  1.43D-04  3.59D-06    22.9
                                                     9.64D-07  2.31D-06
 Grid integrated density:      32.999988141813
 Requested integration accuracy:   0.10E-06
 d= 0,ls=0.5,diis    65   -156.9120014114 -1.10D-06  1.37D-04  3.10D-06    23.3
                                                     6.88D-07  1.95D-06
 Grid integrated density:      32.999988144267
 Requested integration accuracy:   0.10E-06
 d= 0,ls=0.5,diis    66   -156.9120023158 -9.04D-07  1.30D-04  2.76D-06    23.6
                                                     1.59D-06  1.72D-06
 Grid integrated density:      32.999988146172
 Requested integration accuracy:   0.10E-06
 d= 0,ls=0.5,diis    67   -156.9120030389 -7.23D-07  1.23D-04  2.54D-06    24.0
                                                     1.66D-06  1.61D-06
 Grid integrated density:      32.999988148210
 Requested integration accuracy:   0.10E-06
 d= 0,ls=0.5,diis    68   -156.9120036463 -6.07D-07  1.16D-04  2.43D-06    24.3
                                                     1.17D-06  1.58D-06
 Grid integrated density:      32.999988150084
 Requested integration accuracy:   0.10E-06
 d= 0,ls=0.5,diis    69   -156.9120042370 -5.91D-07  1.11D-04  2.25D-06    24.7
                                                     1.74D-06  1.47D-06
 Grid integrated density:      32.999988151926
 Requested integration accuracy:   0.10E-06
 d= 0,ls=0.5,diis    70   -156.9120046921 -4.55D-07  1.04D-04  2.17D-06    25.0
                                                     1.64D-06  1.45D-06
 Grid integrated density:      32.999988153395
 Requested integration accuracy:   0.10E-06
 d= 0,ls=0.5,diis    71   -156.9120051285 -4.36D-07  9.71D-05  2.07D-06    25.3
                                                     7.13D-07  1.41D-06
 Grid integrated density:      32.999988155008
 Requested integration accuracy:   0.10E-06
 d= 0,ls=0.5,diis    72   -156.9120056015 -4.73D-07  9.30D-05  1.90D-06    25.7
                                                     1.09D-06  1.29D-06
 Grid integrated density:      32.999988156540
 Requested integration accuracy:   0.10E-06
 d= 0,ls=0.5,diis    73   -156.9120060647 -4.63D-07  8.98D-05  1.71D-06    26.0
                                                     1.17D-06  1.16D-06
 Grid integrated density:      32.999988157971
 Requested integration accuracy:   0.10E-06
 d= 0,ls=0.5,diis    74   -156.9120064385 -3.74D-07  8.57D-05  1.61D-06    26.4
                                                     1.41D-06  1.09D-06
 Grid integrated density:      32.999988159183
 Requested integration accuracy:   0.10E-06
 d= 0,ls=0.5,diis    75   -156.9120067501 -3.12D-07  8.11D-05  1.53D-06    26.7
                                                     1.06D-06  1.04D-06
 Grid integrated density:      32.999988160453
 Requested integration accuracy:   0.10E-06
 d= 0,ls=0.5,diis    76   -156.9120070764 -3.26D-07  7.73D-05  1.41D-06    27.1
                                                     8.96D-07  9.51D-07
 Grid integrated density:      32.999988161634
 Requested integration accuracy:   0.10E-06
 d= 0,ls=0.5,diis    77   -156.9120073651 -2.89D-07  7.31D-05  1.32D-06    27.4
                                                     4.78D-07  8.92D-07
 Grid integrated density:      32.999988162930
 Requested integration accuracy:   0.10E-06
 d= 0,ls=0.5,diis    78   -156.9120076572 -2.92D-07  6.98D-05  1.21D-06    27.8
                                                     4.22D-07  8.16D-07
 Grid integrated density:      32.999988164167
 Requested integration accuracy:   0.10E-06
 d= 0,ls=0.5,diis    79   -156.9120079376 -2.80D-07  6.62D-05  1.09D-06    28.1
                                                     1.21D-06  7.36D-07
 Grid integrated density:      32.999988165745
 Requested integration accuracy:   0.10E-06
 d= 0,ls=0.5,diis    80   -156.9120082811 -3.43D-07  6.45D-05  9.06D-07    28.5
                                                     1.08D-06  5.92D-07
 Grid integrated density:      32.999988167231
 Requested integration accuracy:   0.10E-06
 d= 0,ls=0.5,diis    81   -156.9120085884 -3.07D-07  6.38D-05  7.48D-07    28.8
                                                     1.26D-06  4.72D-07
 Grid integrated density:      32.999988168526
 Requested integration accuracy:   0.10E-06
 d= 0,ls=0.5,diis    82   -156.9120088694 -2.81D-07  6.21D-05  6.19D-07    29.2
                                                     1.04D-06  3.79D-07
 Grid integrated density:      32.999988169897
 Requested integration accuracy:   0.10E-06
 d= 0,ls=0.5,diis    83   -156.9120091290 -2.60D-07  6.01D-05  5.04D-07    29.6
                                                     7.97D-07  2.95D-07
 Grid integrated density:      32.999988171213
 Requested integration accuracy:   0.10E-06
 d= 0,ls=0.5,diis    84   -156.9120093587 -2.30D-07  5.79D-05  4.12D-07    29.9
                                                     7.35D-07  2.29D-07
 Grid integrated density:      32.999988172585
 Requested integration accuracy:   0.10E-06
 d= 0,ls=0.5,diis    85   -156.9120095659 -2.07D-07  5.61D-05  3.41D-07    30.2
                                                     4.05D-07  1.78D-07
 Grid integrated density:      32.999988173720
 Requested integration accuracy:   0.10E-06
 d= 0,ls=0.5,diis    86   -156.9120097533 -1.87D-07  5.50D-05  2.80D-07    30.6
                                                     2.29D-07  1.36D-07
 Grid integrated density:      32.999988174762
 Requested integration accuracy:   0.10E-06
 d= 0,ls=0.5,diis    87   -156.9120099183 -1.65D-07  5.29D-05  2.46D-07    31.0
                                                     2.94D-07  1.14D-07
 Grid integrated density:      32.999988175843
 Requested integration accuracy:   0.10E-06
 d= 0,ls=0.5,diis    88   -156.9120100804 -1.62D-07  5.06D-05  2.12D-07    31.3
                                                     8.10D-07  9.28D-08
 Grid integrated density:      32.999988177007
 Requested integration accuracy:   0.10E-06
 d= 0,ls=0.5,diis    89   -156.9120102520 -1.72D-07  4.99D-05  1.65D-07    31.7
                                                     3.91D-07  5.97D-08
 Grid integrated density:      32.999988177996
 Requested integration accuracy:   0.10E-06
 d= 0,ls=0.5,diis    90   -156.9120104073 -1.55D-07  4.87D-05  1.36D-07    32.0
                                                     2.62D-07  4.01D-08
 Grid integrated density:      32.999988178935
 Requested integration accuracy:   0.10E-06
 d= 0,ls=0.5,diis    91   -156.9120105557 -1.48D-07  4.74D-05  1.14D-07    32.4
                                                     1.82D-07  2.59D-08
 Grid integrated density:      32.999988179822
 Requested integration accuracy:   0.10E-06
 d= 0,ls=0.5,diis    92   -156.9120106981 -1.42D-07  4.61D-05  1.01D-07    32.7
                                                     2.13D-07  1.72D-08
 Grid integrated density:      32.999988180619
 Requested integration accuracy:   0.10E-06
 d= 0,ls=0.5,diis    93   -156.9120108384 -1.40D-07  4.47D-05  9.20D-08    33.1
                                                     3.29D-07  1.16D-08
 Grid integrated density:      32.999988181374
 Requested integration accuracy:   0.10E-06
 d= 0,ls=0.5,diis    94   -156.9120109779 -1.40D-07  4.32D-05  8.80D-08    33.4
                                                     2.06D-07  8.92D-09
 Grid integrated density:      32.999988182151
 Requested integration accuracy:   0.10E-06
 d= 0,ls=0.5,diis    95   -156.9120111215 -1.44D-07  4.21D-05  8.37D-08    33.8
                                                     6.55D-07  5.98D-09
 Grid integrated density:      32.999988183031
 Requested integration accuracy:   0.10E-06
 d= 0,ls=0.5,diis    96   -156.9120112714 -1.50D-07  4.17D-05  7.79D-08    34.1
                                                     5.28D-07  2.94D-09
 Grid integrated density:      32.999988183874
 Requested integration accuracy:   0.10E-06
 d= 0,ls=0.5,diis    97   -156.9120114213 -1.50D-07  4.16D-05  8.02D-08    34.4
                                                     2.05D-07  5.40D-09
 Grid integrated density:      32.999988184616
 Requested integration accuracy:   0.10E-06
 d= 0,ls=0.5,diis    98   -156.9120115754 -1.54D-07  4.09D-05  8.62D-08    34.8
                                                     1.70D-07  9.37D-09
 Grid integrated density:      32.999988185339
 Requested integration accuracy:   0.10E-06
 d= 0,ls=0.5,diis    99   -156.9120117351 -1.60D-07  4.03D-05  9.53D-08    35.1
                                                     2.65D-07  1.60D-08
 Grid integrated density:      32.999988185970
 Requested integration accuracy:   0.10E-06
 d= 0,ls=0.5,diis   100   -156.9120119036 -1.68D-07  4.01D-05  1.05D-07    35.5
                                                     5.46D-07  2.22D-08
 Grid integrated density:      32.999988186706
 Requested integration accuracy:   0.10E-06
 d= 0,ls=0.5,diis   101   -156.9120120790 -1.75D-07  4.04D-05  1.19D-07    35.8
                                                     2.55D-07  3.17D-08
 Grid integrated density:      32.999988187366
 Requested integration accuracy:   0.10E-06
 d= 0,ls=0.5,diis   102   -156.9120122670 -1.88D-07  4.02D-05  1.35D-07    36.2
                                                     8.48D-07  4.16D-08
 Grid integrated density:      32.999988188039
 Requested integration accuracy:   0.10E-06
 d= 0,ls=0.5,diis   103   -156.9120124532 -1.86D-07  4.07D-05  1.67D-07    36.5
                                                     4.94D-07  6.80D-08
 Grid integrated density:      32.999988188758
 Requested integration accuracy:   0.10E-06
 d= 0,ls=0.5,diis   104   -156.9120126549 -2.02D-07  4.17D-05  1.96D-07    36.9
                                                     4.57D-07  9.04D-08
 Grid integrated density:      32.999988189341
 Requested integration accuracy:   0.10E-06
 d= 0,ls=0.5,diis   105   -156.9120128905 -2.36D-07  4.09D-05  2.11D-07    37.2
                                                     2.83D-07  9.58D-08
 Grid integrated density:      32.999988189999
 Requested integration accuracy:   0.10E-06
 d= 0,ls=0.5,diis   106   -156.9120131280 -2.37D-07  4.10D-05  2.41D-07    37.6
                                                     2.12D-07  1.18D-07
 Grid integrated density:      32.999988190590
 Requested integration accuracy:   0.10E-06
 d= 0,ls=0.5,diis   107   -156.9120133855 -2.58D-07  4.14D-05  2.73D-07    37.9
                                                     1.06D-07  1.39D-07
 Grid integrated density:      32.999988191133
 Requested integration accuracy:   0.10E-06
 d= 0,ls=0.5,diis   108   -156.9120136641 -2.79D-07  3.87D-05  3.05D-07    38.2
                                                     1.10D-06  1.60D-07
 Grid integrated density:      32.999988191315
 Requested integration accuracy:   0.10E-06
 d= 0,ls=0.5,diis   109   -156.9120139357 -2.72D-07  3.94D-05  3.50D-07    38.6
                                                     6.62D-07  2.07D-07
 Grid integrated density:      32.999988191623
 Requested integration accuracy:   0.10E-06
 d= 0,ls=0.5,diis   110   -156.9120142313 -2.96D-07  4.01D-05  3.94D-07    38.9
                                                     4.25D-07  2.46D-07
 Grid integrated density:      32.999988191984
 Requested integration accuracy:   0.10E-06
 d= 0,ls=0.5,diis   111   -156.9120145514 -3.20D-07  4.12D-05  4.39D-07    39.3
                                                     3.03D-07  2.83D-07
 Grid integrated density:      32.999988192348
 Requested integration accuracy:   0.10E-06
 d= 0,ls=0.5,diis   112   -156.9120149053 -3.54D-07  4.13D-05  4.79D-07    39.6
                                                     4.29D-07  3.13D-07
 Grid integrated density:      32.999988192789
 Requested integration accuracy:   0.10E-06
 d= 0,ls=0.5,diis   113   -156.9120152776 -3.72D-07  4.35D-05  5.25D-07    40.0
                                                     2.20D-07  3.52D-07
 Grid integrated density:      32.999988193178
 Requested integration accuracy:   0.10E-06
 d= 0,ls=0.5,diis   114   -156.9120156940 -4.16D-07  4.47D-05  5.68D-07    40.3
                                                     1.47D-07  3.80D-07
 Grid integrated density:      32.999988193579
 Requested integration accuracy:   0.10E-06
 d= 0,ls=0.5,diis   115   -156.9120161420 -4.48D-07  4.62D-05  6.18D-07    40.6
                                                     1.97D-07  4.16D-07
 Grid integrated density:      32.999988193925
 Requested integration accuracy:   0.10E-06
 d= 0,ls=0.5,diis   116   -156.9120166356 -4.94D-07  4.79D-05  6.63D-07    41.0
                                                     6.35D-07  4.44D-07
 Grid integrated density:      32.999988194173
 Requested integration accuracy:   0.10E-06
 d= 0,ls=0.5,diis   117   -156.9120171875 -5.52D-07  4.96D-05  7.03D-07    41.3
                                                     1.01D-06  4.65D-07
 Grid integrated density:      32.999988194315
 Requested integration accuracy:   0.10E-06
 d= 0,ls=0.5,diis   118   -156.9120178058 -6.18D-07  5.23D-05  7.14D-07    41.7
                                                     7.77D-07  4.55D-07
 Grid integrated density:      32.999988194398
 Requested integration accuracy:   0.10E-06
 d= 0,ls=0.5,diis   119   -156.9120184754 -6.70D-07  5.37D-05  7.43D-07    42.0
                                                     5.00D-07  4.57D-07
 Grid integrated density:      32.999988194516
 Requested integration accuracy:   0.10E-06
 d= 0,ls=0.5,diis   120   -156.9120191859 -7.11D-07  5.50D-05  7.90D-07    42.4
                                                     7.37D-07  4.80D-07
 Grid integrated density:      32.999988194521
 Requested integration accuracy:   0.10E-06
 d= 0,ls=0.5,diis   121   -156.9120199540 -7.68D-07  5.34D-05  8.39D-07    42.7
                                                     1.56D-06  5.01D-07
 Grid integrated density:      32.999988194563
 Requested integration accuracy:   0.10E-06
 d= 0,ls=0.5,diis   122   -156.9120207545 -8.01D-07  5.52D-05  8.83D-07    43.0
                                                     7.58D-07  5.31D-07
 Grid integrated density:      32.999988194557
 Requested integration accuracy:   0.10E-06
 d= 0,ls=0.5,diis   123   -156.9120215880 -8.33D-07  5.71D-05  9.65D-07    43.4
                                                     7.47D-07  5.98D-07
 Grid integrated density:      32.999988194458
 Requested integration accuracy:   0.10E-06
 d= 0,ls=0.5,diis   124   -156.9120225031 -9.15D-07  5.89D-05  1.04D-06    43.7
                                                     7.17D-07  6.51D-07
 Grid integrated density:      32.999988194497
 Requested integration accuracy:   0.10E-06
 d= 0,ls=0.5,diis   125   -156.9120234777 -9.75D-07  6.18D-05  1.11D-06    44.1
                                                     1.07D-06  7.09D-07
 Grid integrated density:      32.999988194435
 Requested integration accuracy:   0.10E-06
 d= 0,ls=0.5,diis   126   -156.9120245674 -1.09D-06  6.69D-05  1.17D-06    44.4
                                                     1.18D-06  7.41D-07
 Grid integrated density:      32.999988194382
 Requested integration accuracy:   0.10E-06
 d= 0,ls=0.5,diis   127   -156.9120257978 -1.23D-06  6.92D-05  1.21D-06    44.8
                                                     5.50D-07  7.33D-07
 Grid integrated density:      32.999988194379
 Requested integration accuracy:   0.10E-06
 d= 0,ls=0.5,diis   128   -156.9120270887 -1.29D-06  7.35D-05  1.30D-06    45.1
                                                     1.20D-06  7.74D-07
 Grid integrated density:      32.999988194126
 Requested integration accuracy:   0.10E-06
 d= 0,ls=0.5,diis   129   -156.9120285088 -1.42D-06  7.84D-05  1.38D-06    45.5
                                                     2.13D-06  8.02D-07
 Grid integrated density:      32.999988193579
 Requested integration accuracy:   0.10E-06
 d= 0,ls=0.5,diis   130   -156.9120301139 -1.61D-06  8.49D-05  1.42D-06    45.9
                                                     1.95D-06  7.74D-07
 Grid integrated density:      32.999988194068
 Requested integration accuracy:   0.10E-06
 d= 0,ls=0.5,diis   131   -156.9120319085 -1.79D-06  8.57D-05  1.46D-06    46.2
                                                     8.88D-07  7.29D-07
 Grid integrated density:      32.999988194106
 Requested integration accuracy:   0.10E-06
 d= 0,ls=0.5,diis   132   -156.9120337568 -1.85D-06  8.47D-05  1.58D-06    46.5
                                                     8.83D-07  7.83D-07
 Grid integrated density:      32.999988193999
 Requested integration accuracy:   0.10E-06
 d= 0,ls=0.5,diis   133   -156.9120356557 -1.90D-06  8.66D-05  1.76D-06    46.9
                                                     1.49D-06  9.35D-07
 Grid integrated density:      32.999988194065
 Requested integration accuracy:   0.10E-06
 d= 0,ls=0.5,diis   134   -156.9120376472 -1.99D-06  9.25D-05  1.99D-06    47.2
                                                     1.59D-06  1.13D-06
 Grid integrated density:      32.999988193895
 Requested integration accuracy:   0.10E-06
 d= 0,ls=0.5,diis   135   -156.9120398747 -2.23D-06  9.18D-05  2.19D-06    47.6
                                                     1.24D-06  1.26D-06
 Grid integrated density:      32.999988194095
 Requested integration accuracy:   0.10E-06
 d= 0,ls=0.5,diis   136   -156.9120422182 -2.34D-06  1.02D-04  2.36D-06    47.9
                                                     1.18D-06  1.42D-06
 Grid integrated density:      32.999988194477
 Requested integration accuracy:   0.10E-06
 d= 0,ls=0.5,diis   137   -156.9120449265 -2.71D-06  1.11D-04  2.50D-06    48.3
                                                     2.87D-06  1.43D-06
 Grid integrated density:      32.999988194492
 Requested integration accuracy:   0.10E-06
 d= 0,ls=0.5,diis   138   -156.9120479836 -3.06D-06  1.17D-04  2.60D-06    48.6
                                                     1.96D-06  1.38D-06
 Grid integrated density:      32.999988195072
 Requested integration accuracy:   0.10E-06
 d= 0,ls=0.5,diis   139   -156.9120512956 -3.31D-06  1.20D-04  2.76D-06    49.0
                                                     1.09D-06  1.40D-06
 Grid integrated density:      32.999988195519
 Requested integration accuracy:   0.10E-06
 d= 0,ls=0.5,diis   140   -156.9120548162 -3.52D-06  1.13D-04  2.98D-06    49.3
                                                     2.55D-06  1.49D-06
 Grid integrated density:      32.999988195980
 Requested integration accuracy:   0.10E-06
 d= 0,ls=0.5,diis   141   -156.9120581953 -3.38D-06  1.15D-04  3.46D-06    49.6
                                                     1.92D-06  1.98D-06
 Grid integrated density:      32.999988195913
 Requested integration accuracy:   0.10E-06
 d= 0,ls=0.5,diis   142   -156.9120618406 -3.65D-06  1.22D-04  3.90D-06    50.0
                                                     1.16D-06  2.42D-06
 Grid integrated density:      32.999988195975
 Requested integration accuracy:   0.10E-06
 d= 0,ls=0.5,diis   143   -156.9120658522 -4.01D-06  1.25D-04  4.34D-06    50.3
                                                     1.72D-06  2.80D-06
 Grid integrated density:      32.999988195712
 Requested integration accuracy:   0.10E-06
 d= 0,ls=0.5,diis   144   -156.9120701229 -4.27D-06  1.32D-04  4.86D-06    50.7
                                                     1.44D-06  3.29D-06
 Grid integrated density:      32.999988196227
 Requested integration accuracy:   0.10E-06
 d= 0,ls=0.5,diis   145   -156.9120747483 -4.63D-06  1.39D-04  5.44D-06    51.0
                                                     7.38D-07  3.79D-06
 Grid integrated density:      32.999988196649
 Requested integration accuracy:   0.10E-06
 d= 0,ls=0.5,diis   146   -156.9120798280 -5.08D-06  1.44D-04  5.96D-06    51.6
                                                     5.83D-07  4.21D-06
 Grid integrated density:      32.999988197153
 Requested integration accuracy:   0.10E-06
 d= 0,ls=0.5,diis   147   -156.9120853037 -5.48D-06  1.49D-04  6.54D-06    51.9
                                                     4.68D-07  4.68D-06
 Grid integrated density:      32.999988197846
 Requested integration accuracy:   0.10E-06
 d= 0,ls=0.5,diis   148   -156.9120912145 -5.91D-06  1.61D-04  7.12D-06    52.2
                                                     1.66D-06  5.16D-06
 Grid integrated density:      32.999988199123
 Requested integration accuracy:   0.10E-06
 d= 0,ls=0.5,diis   149   -156.9120978604 -6.65D-06  1.81D-04  7.69D-06    52.6
                                                     5.37D-06  5.49D-06
 Grid integrated density:      32.999988199647
 Requested integration accuracy:   0.10E-06
 d= 0,ls=0.5,diis   150   -156.9121055634 -7.70D-06  1.88D-04  8.16D-06    52.9
                                                     3.08D-06  5.51D-06
 Grid integrated density:      32.999988200991
 Requested integration accuracy:   0.10E-06
 d= 0,ls=0.5,diis   151   -156.9121138171 -8.25D-06  1.79D-04  8.80D-06    53.3
                                                     3.01D-06  5.79D-06
 Grid integrated density:      32.999988201984
 Requested integration accuracy:   0.10E-06
 d= 0,ls=0.5,diis   152   -156.9121216985 -7.88D-06  1.85D-04  1.01D-05    53.7
                                                     2.99D-06  7.09D-06
 Grid integrated density:      32.999988202672
 Requested integration accuracy:   0.10E-06
 d= 0,ls=0.5,diis   153   -156.9121300414 -8.34D-06  1.94D-04  1.16D-05    54.1
                                                     2.33D-06  8.53D-06
 Grid integrated density:      32.999988204444
 Requested integration accuracy:   0.10E-06
 d= 0,ls=0.5,diis   154   -156.9121392576 -9.22D-06  2.03D-04  1.29D-05    54.4
                                                     1.22D-06  9.69D-06
 Grid integrated density:      32.999988205610
 Requested integration accuracy:   0.10E-06
 d= 0,ls=0.5,diis   155   -156.9121494958 -1.02D-05  2.07D-04  1.41D-05    54.8
                                                     1.61D-06  1.07D-05
 Grid integrated density:      32.999988206747
 Requested integration accuracy:   0.10E-06
 d= 0,ls=0.5,diis   156   -156.9121602472 -1.08D-05  2.21D-04  1.55D-05    55.1
                                                     1.71D-06  1.20D-05
 Grid integrated density:      32.999988208088
 Requested integration accuracy:   0.10E-06
 d= 0,ls=0.5,diis   157   -156.9121723782 -1.21D-05  2.54D-04  1.67D-05    55.5
                                                     9.48D-06  1.29D-05
 Grid integrated density:      32.999988210007
 Requested integration accuracy:   0.10E-06
 d= 0,ls=0.5,diis   158   -156.9121861596 -1.38D-05  2.55D-04  1.86D-05    55.8
                                                     3.57D-06  1.39D-05
 Grid integrated density:      32.999988211780
 Requested integration accuracy:   0.10E-06
 d= 0,ls=0.5,diis   159   -156.9122004916 -1.43D-05  2.66D-04  2.05D-05    56.1
                                                     2.84D-06  1.54D-05
 Grid integrated density:      32.999988213418
 Requested integration accuracy:   0.10E-06
 d= 0,ls=0.5,diis   160   -156.9122164347 -1.59D-05  2.87D-04  2.20D-05    56.5
                                                     4.16D-06  1.63D-05
 Grid integrated density:      32.999988215931
 Requested integration accuracy:   0.10E-06
 d= 0,ls=0.5,diis   161   -156.9122341787 -1.77D-05  2.93D-04  2.38D-05    56.9
                                                     2.25D-06  1.73D-05
 Grid integrated density:      32.999988218465
 Requested integration accuracy:   0.10E-06
 d= 0,ls=0.5,diis   162   -156.9122528175 -1.86D-05  2.94D-04  2.60D-05    57.2
                                                     4.39D-06  1.90D-05
 Grid integrated density:      32.999988219053
 Requested integration accuracy:   0.10E-06
 d= 0,ls=0.5,diis   163   -156.9122703730 -1.76D-05  2.85D-04  3.11D-05    57.5
                                                     9.18D-06  2.42D-05
 Grid integrated density:      32.999988218112
 Requested integration accuracy:   0.10E-06
 d= 0,ls=0.5,diis   164   -156.9122868186 -1.64D-05  2.97D-04  3.80D-05    57.9
                                                     9.10D-06  3.23D-05
 Grid integrated density:      32.999988217955
 Requested integration accuracy:   0.10E-06
 d= 0,ls=0.5,diis   165   -156.9123031633 -1.63D-05  3.17D-04  4.65D-05    58.2
                                                     5.26D-06  4.19D-05
 Grid integrated density:      32.999988219441
 Requested integration accuracy:   0.10E-06
 d= 0,ls=0.5,diis   166   -156.9123228600 -1.97D-05  3.34D-04  5.35D-05    58.6
                                                     6.24D-06  4.92D-05
 Grid integrated density:      32.999988221013
 Requested integration accuracy:   0.10E-06
 d= 0,ls=0.5,diis   167   -156.9123428863 -2.00D-05  3.51D-04  6.26D-05    58.9
                                                     3.70D-06  5.88D-05
 Grid integrated density:      32.999988223519
 Requested integration accuracy:   0.10E-06
 d= 0,ls=0.5,diis   168   -156.9123657673 -2.29D-05  3.72D-04  7.09D-05    59.3
                                                     2.54D-06  6.75D-05
 Grid integrated density:      32.999988228441
 Requested integration accuracy:   0.10E-06
 d= 0,ls=0.5,diis   169   -156.9123938567 -2.81D-05  3.85D-04  7.59D-05    59.6
                                                     1.55D-06  7.19D-05
 Grid integrated density:      32.999988233425
 Requested integration accuracy:   0.10E-06
 d= 0,ls=0.5,diis   170   -156.9124223842 -2.85D-05  4.20D-04  8.34D-05    60.0
                                                     8.30D-06  7.95D-05
 Grid integrated density:      32.999988240724
 Requested integration accuracy:   0.10E-06
 d= 0,ls=0.5,diis   171   -156.9124565437 -3.42D-05  4.63D-04  8.95D-05    60.3
                                                     1.06D-05  8.40D-05
 Grid integrated density:      32.999988246552
 Requested integration accuracy:   0.10E-06
 d= 0,ls=0.5,diis   172   -156.9124973037 -4.08D-05  5.12D-04  9.25D-05    60.7
                                                     1.68D-05  8.55D-05
 Grid integrated density:      32.999988258010
 Requested integration accuracy:   0.10E-06
 d= 0,ls=0.5,diis   173   -156.9125476073 -5.03D-05  5.13D-04  9.04D-05    61.1
                                                     7.29D-06  7.98D-05
 Grid integrated density:      32.999988266662
 Requested integration accuracy:   0.10E-06
 d= 0,ls=0.5,diis   174   -156.9125924664 -4.49D-05  5.31D-04  9.78D-05    61.4
                                                     5.88D-06  8.63D-05
 Grid integrated density:      32.999988275246
 Requested integration accuracy:   0.10E-06
 d= 0,ls=0.5,diis   175   -156.9126404487 -4.80D-05  5.47D-04  1.06D-04    61.8
                                                     3.77D-06  9.37D-05
 Grid integrated density:      32.999988282523
 Requested integration accuracy:   0.10E-06
 d= 0,ls=0.5,diis   176   -156.9126891301 -4.87D-05  5.66D-04  1.19D-04    62.1
                                                     3.70D-06  1.06D-04
 Grid integrated density:      32.999988290109
 Requested integration accuracy:   0.10E-06
 d= 0,ls=0.5,diis   177   -156.9127397040 -5.06D-05  5.72D-04  1.34D-04    62.5
                                                     8.21D-06  1.23D-04
 Grid integrated density:      32.999988299251
 Requested integration accuracy:   0.10E-06
 d= 0,ls=0.5,diis   178   -156.9127872663 -4.76D-05  5.85D-04  1.56D-04    62.9
                                                     1.18D-05  1.47D-04
 Grid integrated density:      32.999988307114
 Requested integration accuracy:   0.10E-06
 d= 0,ls=0.5,diis   179   -156.9128368451 -4.96D-05  6.33D-04  1.76D-04    63.2
                                                     1.52D-05  1.71D-04
 Grid integrated density:      32.999988307621
 Requested integration accuracy:   0.10E-06
 d= 0,ls=0.5,diis   180   -156.9128789622 -4.21D-05  6.49D-04  2.21D-04    63.5
                                                     1.35D-05  2.20D-04
 Grid integrated density:      32.999988310855
 Requested integration accuracy:   0.10E-06
 d= 0,ls=0.5,diis   181   -156.9129216874 -4.27D-05  6.75D-04  2.66D-04    63.9
                                                     9.96D-06  2.73D-04
 Grid integrated density:      32.999988317992
 Requested integration accuracy:   0.10E-06
 d= 0,ls=0.5,diis   182   -156.9129700805 -4.84D-05  7.14D-04  3.10D-04    64.2
                                                     6.14D-06  3.23D-04
 Grid integrated density:      32.999988327986
 Requested integration accuracy:   0.10E-06
 d= 0,ls=0.5,diis   183   -156.9130358981 -6.58D-05  7.46D-04  3.38D-04    64.6
                                                     5.00D-06  3.53D-04
 Grid integrated density:      32.999988337629
 Requested integration accuracy:   0.10E-06
 d= 0,ls=0.5,diis   184   -156.9130985274 -6.26D-05  7.83D-04  3.76D-04    64.9
                                                     4.35D-06  3.97D-04
 Grid integrated density:      32.999988348749
 Requested integration accuracy:   0.10E-06
 d= 0,ls=0.5,diis   185   -156.9131645303 -6.60D-05  9.55D-04  4.20D-04    65.2
                                                     3.95D-05  4.47D-04
 Grid integrated density:      32.999988376391
 Requested integration accuracy:   0.10E-06
 d= 0,ls=0.5,diis   186   -156.9133086658 -1.44D-04  9.70D-04  3.80D-04    65.6
                                                     1.91D-05  3.94D-04
 Grid integrated density:      32.999988395498
 Requested integration accuracy:   0.10E-06
 d= 0,ls=0.5,diis   187   -156.9134123456 -1.04D-04  9.81D-04  4.05D-04    65.9
                                                     1.46D-05  4.18D-04
 Grid integrated density:      32.999988406341
 Requested integration accuracy:   0.10E-06
 d= 0,ls=0.5,diis   188   -156.9134904956 -7.82D-05  9.94D-04  4.72D-04    66.2
                                                     1.65D-05  4.93D-04
 Grid integrated density:      32.999988416759
 Requested integration accuracy:   0.10E-06
 d= 0,ls=0.5,diis   189   -156.9135464496 -5.60D-05  1.11D-03  5.76D-04    66.6
                                                     3.04D-05  6.14D-04
 Grid integrated density:      32.999988445992
 Requested integration accuracy:   0.10E-06
 d= 0,ls=0.5,diis   190   -156.9137034289 -1.57D-04  1.12D-03  5.53D-04    66.9
                                                     1.74D-05  5.82D-04
 Grid integrated density:      32.999988468734
 Requested integration accuracy:   0.10E-06
 d= 0,ls=0.5,diis   191   -156.9138241729 -1.21D-04  1.14D-03  5.87D-04    67.2
                                                     1.55D-05  6.21D-04
 Grid integrated density:      32.999988480459
 Requested integration accuracy:   0.10E-06
 d= 0,ls=0.5,diis   192   -156.9139066055 -8.24D-05  1.19D-03  6.81D-04    67.6
                                                     1.69D-05  7.31D-04
 Grid integrated density:      32.999988509176
 Requested integration accuracy:   0.10E-06
 d= 0,ls=0.5,diis   193   -156.9140173787 -1.11D-04  1.17D-03  7.40D-04    67.9
                                                     7.09D-05  7.97D-04
 Grid integrated density:      32.999988497560
 Requested integration accuracy:   0.10E-06
 d= 0,ls=0.5,diis   194   -156.9138983878  1.19D-04  1.29D-03  1.13D-03    68.3
                                                     4.30D-05  1.25D-03
 Grid integrated density:      32.999988498418
 Requested integration accuracy:   0.10E-06
 d= 0,ls=0.5,diis   195   -156.9138393753  5.90D-05  1.33D-03  1.44D-03    68.6
                                                     8.11D-05  1.60D-03
 Grid integrated density:      32.999988488164
 Requested integration accuracy:   0.10E-06
 d= 0,ls=0.5,diis   196   -156.9135523754  2.87D-04  1.43D-03  2.06D-03    68.9
                                                     2.93D-05  2.32D-03
 Grid integrated density:      32.999988503957
 Requested integration accuracy:   0.10E-06
 d= 0,ls=0.5,diis   197   -156.9134779391  7.44D-05  1.48D-03  2.39D-03    69.3
                                                     2.77D-05  2.69D-03
 Grid integrated density:      32.999988531561
 Requested integration accuracy:   0.10E-06
 d= 0,ls=0.5,diis   198   -156.9134257659  5.22D-05  1.66D-03  2.71D-03    69.6
                                                     1.03D-04  3.04D-03
 Grid integrated density:      32.999988596971
 Requested integration accuracy:   0.10E-06
 d= 0,ls=0.5,diis   199   -156.9139524845 -5.27D-04  1.68D-03  2.23D-03    69.9
                                                     8.17D-05  2.46D-03
 Grid integrated density:      32.999988658060
 Requested integration accuracy:   0.10E-06
 d= 0,ls=0.5,diis   200   -156.9143283868 -3.76D-04  1.97D-03  1.99D-03    70.3
                                                     1.93D-04  2.17D-03
 Grid integrated density:      32.999988764688
 Requested integration accuracy:   0.10E-06
 d= 0,ls=0.5,diis   201   -156.9151065566 -7.78D-04  1.95D-03  1.23D-03    70.6
                                                     1.65D-04  1.30D-03
 Grid integrated density:      32.999988859275
 Requested integration accuracy:   0.10E-06
 d= 0,ls=0.5,diis   202   -156.9156694155 -5.63D-04  2.02D-03  7.62D-04    71.0
                                                     1.56D-04  7.69D-04
 Grid integrated density:      32.999988942756
 Requested integration accuracy:   0.10E-06
 d= 0,ls=0.5,diis   203   -156.9161211599 -4.52D-04  1.95D-03  4.50D-04    71.3
                                                     1.16D-04  4.17D-04
 Grid integrated density:      32.999989010598
 Requested integration accuracy:   0.10E-06
 d= 0,ls=0.5,diis   204   -156.9164379927 -3.17D-04  2.23D-03  3.10D-04    71.6
                                                     2.10D-04  2.61D-04
 Grid integrated density:      32.999989120628
 Requested integration accuracy:   0.10E-06
 d= 0,ls=0.5,diis   205   -156.9168048000 -3.67D-04  2.12D-03  1.10D-04    72.0
                                                     1.54D-04  2.00D-05
 Grid integrated density:      32.999989202381
 Requested integration accuracy:   0.10E-06
 d= 0,ls=0.5,diis   206   -156.9170099430 -2.05D-04  1.90D-03  1.16D-04    72.3
                                                     6.89D-05  1.67D-05
 Grid integrated density:      32.999989241633
 Requested integration accuracy:   0.10E-06
 d= 0,ls=0.5,diis   207   -156.9171963016 -1.86D-04  1.88D-03  1.10D-04    72.6
                                                     5.45D-05  1.19D-05
 Grid integrated density:      32.999989280809
 Requested integration accuracy:   0.10E-06
 d= 0,ls=0.5,diis   208   -156.9173715222 -1.75D-04  1.98D-03  1.13D-04    73.0
                                                     1.00D-04  1.61D-05
 Grid integrated density:      32.999989339996
 Requested integration accuracy:   0.10E-06
 d= 0,ls=0.5,diis   209   -156.9175089483 -1.37D-04  1.86D-03  1.75D-04    73.3
                                                     6.23D-05  7.46D-05
 Grid integrated density:      32.999989385132
 Requested integration accuracy:   0.10E-06
 d= 0,ls=0.5,diis   210   -156.9176592438 -1.50D-04  1.77D-03  1.97D-04    73.7
                                                     4.54D-05  9.83D-05
 Grid integrated density:      32.999989422300
 Requested integration accuracy:   0.10E-06
 d= 0,ls=0.5,diis   211   -156.9178140586 -1.55D-04  1.80D-03  1.97D-04    74.0
                                                     7.47D-05  1.01D-04
 Grid integrated density:      32.999989472657
 Requested integration accuracy:   0.10E-06
 d= 0,ls=0.5,diis   212   -156.9179235650 -1.10D-04  1.64D-03  2.62D-04    74.3
                                                     2.87D-05  1.68D-04
 Grid integrated density:      32.999989494979
 Requested integration accuracy:   0.10E-06
 d= 0,ls=0.5,diis   213   -156.9180861482 -1.63D-04  1.66D-03  2.26D-04    74.7
                                                     5.63D-05  1.34D-04
 Grid integrated density:      32.999989534430
 Requested integration accuracy:   0.10E-06
 d= 0,ls=0.5,diis   214   -156.9182010277 -1.15D-04  1.57D-03  2.58D-04    75.0
                                                     3.98D-05  1.71D-04
 Grid integrated density:      32.999989568105
 Requested integration accuracy:   0.10E-06
 d= 0,ls=0.5,diis   215   -156.9183249681 -1.24D-04  1.46D-03  2.59D-04    75.3
                                                     1.72D-05  1.80D-04
 Grid integrated density:      32.999989587408
 Requested integration accuracy:   0.10E-06
 d= 0,ls=0.5,diis   216   -156.9184730084 -1.48D-04  1.41D-03  2.12D-04    75.7
                                                     1.72D-05  1.38D-04
 Grid integrated density:      32.999989609614
 Requested integration accuracy:   0.10E-06
 d= 0,ls=0.5,diis   217   -156.9186211204 -1.48D-04  1.55D-03  1.64D-04    76.0
                                                     1.21D-04  9.26D-05
 Grid integrated density:      32.999989676588
 Requested integration accuracy:   0.10E-06
 d= 0,ls=0.5,diis   218   -156.9186208154  3.05D-07  1.47D-03  3.39D-04    76.3
                                                     1.06D-04  2.78D-04
 Grid integrated density:      32.999989736238
 Requested integration accuracy:   0.10E-06
 d= 0,ls=0.5,diis   219   -156.9185957937  2.50D-05  1.37D-03  5.27D-04    76.7
                                                     7.57D-05  4.77D-04
 Grid integrated density:      32.999989777551
 Requested integration accuracy:   0.10E-06
 d= 0,ls=0.5,diis   220   -156.9186041240 -8.33D-06  1.33D-03  6.45D-04    77.0
                                                     6.31D-05  6.00D-04
 Grid integrated density:      32.999989813497
 Requested integration accuracy:   0.10E-06
 d= 0,ls=0.5,diis   221   -156.9186151280 -1.10D-05  1.25D-03  7.46D-04    77.4
                                                     3.86D-05  7.06D-04
 Grid integrated density:      32.999989837387
 Requested integration accuracy:   0.10E-06
 d= 0,ls=0.5,diis   222   -156.9186736294 -5.85D-05  1.16D-03  7.67D-04    77.7
                                                     2.05D-05  7.26D-04
 Grid integrated density:      32.999989851968
 Requested integration accuracy:   0.10E-06
 d= 0,ls=0.5,diis   223   -156.9187681929 -9.46D-05  1.08D-03  7.27D-04    78.0
                                                     1.44D-05  6.82D-04
 Grid integrated density:      32.999989858945
 Requested integration accuracy:   0.10E-06
 d= 0,ls=0.5,diis   224   -156.9189041020 -1.36D-04  1.03D-03  6.21D-04    78.4
                                                     1.46D-05  5.71D-04
 Grid integrated density:      32.999989867216
 Requested integration accuracy:   0.10E-06
 d= 0,ls=0.5,diis   225   -156.9190319475 -1.28D-04  9.78D-04  5.26D-04    78.7
                                                     1.20D-05  4.72D-04
 Grid integrated density:      32.999989877611
 Requested integration accuracy:   0.10E-06
 d= 0,ls=0.5,diis   226   -156.9191347798 -1.03D-04  9.21D-04  4.65D-04    79.0
                                                     3.79D-05  4.07D-04
 Grid integrated density:      32.999989875608
 Requested integration accuracy:   0.10E-06
 d= 0,ls=0.5,diis   227   -156.9192874366 -1.53D-04  9.02D-04  3.25D-04    79.4
                                                     4.83D-05  2.65D-04
 Grid integrated density:      32.999989863931
 Requested integration accuracy:   0.10E-06
 d= 0,ls=0.5,diis   228   -156.9194264532 -1.39D-04  8.86D-04  2.03D-04    79.7
                                                     5.48D-05  1.45D-04
 Grid integrated density:      32.999989855151
 Requested integration accuracy:   0.10E-06
 d= 0,ls=0.5,diis   229   -156.9195498059 -1.23D-04  8.40D-04  1.01D-04    80.0
                                                     2.17D-05  5.12D-05
 Grid integrated density:      32.999989865987
 Requested integration accuracy:   0.10E-06
 d= 0,ls=0.5,diis   230   -156.9196102844 -6.05D-05  8.12D-04  9.13D-05    80.4
                                                     2.67D-05  4.52D-05
 Grid integrated density:      32.999989889599
 Requested integration accuracy:   0.10E-06
 d= 0,ls=0.5,diis   231   -156.9196560860 -4.58D-05  7.65D-04  9.87D-05    80.7
                                                     1.59D-05  5.48D-05
 Grid integrated density:      32.999989904336
 Requested integration accuracy:   0.10E-06
 d= 0,ls=0.5,diis   232   -156.9197074549 -5.14D-05  7.16D-04  8.88D-05    81.0
                                                     6.95D-05  4.76D-05
 Grid integrated density:      32.999989934420
 Requested integration accuracy:   0.10E-06
 d= 0,ls=0.5,diis   233   -156.9197067780  6.77D-07  6.70D-04  1.51D-04    81.4
                                                     4.19D-05  1.06D-04
 Grid integrated density:      32.999989954325
 Requested integration accuracy:   0.10E-06
 d= 0,ls=0.5,diis   234   -156.9197251578 -1.84D-05  6.45D-04  1.73D-04    81.7
                                                     3.41D-05  1.28D-04
 Grid integrated density:      32.999989972176
 Requested integration accuracy:   0.10E-06
 d= 0,ls=0.5,diis   235   -156.9197431030 -1.79D-05  6.24D-04  1.94D-04    82.0
                                                     4.80D-05  1.48D-04
 Grid integrated density:      32.999989997610
 Requested integration accuracy:   0.10E-06
 d= 0,ls=0.5,diis   236   -156.9197332025  9.90D-06  5.94D-04  2.53D-04    82.3
                                                     3.66D-05  2.05D-04
 Grid integrated density:      32.999990016756
 Requested integration accuracy:   0.10E-06
 d= 0,ls=0.5,diis   237   -156.9197339733 -7.71D-07  5.64D-04  2.88D-04    82.7
                                                     2.15D-05  2.39D-04
 Grid integrated density:      32.999990029649
 Requested integration accuracy:   0.10E-06
 d= 0,ls=0.5,diis   238   -156.9197527442 -1.88D-05  5.64D-04  2.93D-04    83.0
                                                     3.95D-05  2.44D-04
 Grid integrated density:      32.999990050337
 Requested integration accuracy:   0.10E-06
 d= 0,ls=0.5,diis   239   -156.9197385650  1.42D-05  5.34D-04  3.44D-04    83.3
                                                     2.42D-05  2.97D-04
 Grid integrated density:      32.999990046306
 Requested integration accuracy:   0.10E-06
 d= 0,ls=0.5,diis   240   -156.9198103230 -7.18D-05  6.51D-04  2.60D-04    83.7
                                                     1.11D-04  2.17D-04
 Grid integrated density:      32.999990021125
 Requested integration accuracy:   0.10E-06
 d= 0,ls=0.5,diis   241   -156.9199644584 -1.54D-04  5.38D-04  6.64D-05    84.0
                                                     2.32D-05  3.77D-05
 Grid integrated density:      32.999990031091
 Requested integration accuracy:   0.10E-06
 d= 0,ls=0.5,diis   242   -156.9199909964 -2.65D-05  4.99D-04  6.52D-05    84.3
                                                     5.27D-05  3.92D-05
 Grid integrated density:      32.999990058239
 Requested integration accuracy:   0.10E-06
 d= 0,ls=0.5,diis   243   -156.9199802447  1.08D-05  4.82D-04  1.17D-04    84.7
                                                     3.15D-05  9.05D-05
 Grid integrated density:      32.999990076181
 Requested integration accuracy:   0.10E-06
 d= 0,ls=0.5,diis   244   -156.9199846694 -4.42D-06  4.56D-04  1.37D-04    85.0
                                                     4.91D-05  1.12D-04
 Grid integrated density:      32.999990098558
 Requested integration accuracy:   0.10E-06
 d= 0,ls=0.5,diis   245   -156.9199630328  2.16D-05  4.33D-04  1.92D-04    85.3
                                                     3.07D-05  1.68D-04
 Grid integrated density:      32.999990112873
 Requested integration accuracy:   0.10E-06
 d= 0,ls=0.5,diis   246   -156.9199587090  4.32D-06  4.10D-04  2.16D-04    85.7
                                                     1.58D-05  1.93D-04
 Grid integrated density:      32.999990120026
 Requested integration accuracy:   0.10E-06
 d= 0,ls=0.5,diis   247   -156.9199723971 -1.37D-05  3.95D-04  2.13D-04    86.0
                                                     2.08D-05  1.89D-04
 Grid integrated density:      32.999990116111
 Requested integration accuracy:   0.10E-06
 d= 0,ls=0.5,diis   248   -156.9200183620 -4.60D-05  3.82D-04  1.61D-04    86.3
                                                     5.62D-06  1.38D-04
 Grid integrated density:      32.999990118782
 Requested integration accuracy:   0.10E-06
 d= 0,ls=0.5,diis   249   -156.9200446233 -2.63D-05  3.68D-04  1.40D-04    86.7
                                                     4.21D-06  1.19D-04
 Grid integrated density:      32.999990123050
 Requested integration accuracy:   0.10E-06
 d= 0,ls=0.5,diis   250   -156.9200658370 -2.12D-05  3.58D-04  1.27D-04    87.0
                                                     6.90D-06  1.07D-04
 Grid integrated density:      32.999990128564
 Requested integration accuracy:   0.10E-06
 d= 0,ls=0.5,diis   251   -156.9200897068 -2.39D-05  3.45D-04  1.10D-04    87.3
                                                     6.79D-06  8.99D-05
 Grid integrated density:      32.999990132944
 Requested integration accuracy:   0.10E-06
 d= 0,ls=0.5,diis   252   -156.9201039326 -1.42D-05  3.40D-04  1.05D-04    87.6
                                                     3.66D-06  8.54D-05
 Grid integrated density:      32.999990137121
 Requested integration accuracy:   0.10E-06
 d= 0,ls=0.5,diis   253   -156.9201229744 -1.90D-05  3.19D-04  9.33D-05    88.0
                                                     5.94D-06  7.39D-05
 Grid integrated density:      32.999990142235
 Requested integration accuracy:   0.10E-06
 d= 0,ls=0.5,diis   254   -156.9201355288 -1.26D-05  3.01D-04  8.96D-05    88.3
                                                     1.21D-05  6.99D-05
 Grid integrated density:      32.999990149584
 Requested integration accuracy:   0.10E-06
 d= 0,ls=0.5,diis   255   -156.9201419393 -6.41D-06  2.87D-04  9.36D-05    88.7
                                                     1.17D-05  7.34D-05
 Grid integrated density:      32.999990157220
 Requested integration accuracy:   0.10E-06
 d= 0,ls=0.5,diis   256   -156.9201473333 -5.39D-06  2.77D-04  9.80D-05    89.0
                                                     7.54D-06  7.76D-05
 Grid integrated density:      32.999990161017
 Requested integration accuracy:   0.10E-06
 d= 0,ls=0.5,diis   257   -156.9201596791 -1.23D-05  2.67D-04  8.98D-05    89.3
                                                     3.65D-06  6.92D-05
 Grid integrated density:      32.999990164615
 Requested integration accuracy:   0.10E-06
 d= 0,ls=0.5,diis   258   -156.9201712993 -1.16D-05  2.72D-04  8.33D-05    89.7
                                                     5.83D-06  6.36D-05
 Grid integrated density:      32.999990167752
 Requested integration accuracy:   0.10E-06
 d= 0,ls=0.5,diis   259   -156.9201869799 -1.57D-05  2.56D-04  6.98D-05    90.0
                                                     4.78D-06  5.18D-05
 Grid integrated density:      32.999990173023
 Requested integration accuracy:   0.10E-06
 d= 0,ls=0.5,diis   260   -156.9201961733 -9.19D-06  2.51D-04  6.65D-05    90.3
                                                     7.72D-06  4.95D-05
 Grid integrated density:      32.999990178793
 Requested integration accuracy:   0.10E-06
 d= 0,ls=0.5,diis   261   -156.9202060922 -9.92D-06  2.50D-04  6.08D-05    90.7
                                                     5.74D-06  4.53D-05
 Grid integrated density:      32.999990180960
 Requested integration accuracy:   0.10E-06
 d= 0,ls=0.5,diis   262   -156.9202194995 -1.34D-05  2.48D-04  4.94D-05    91.0
                                                     4.29D-06  3.57D-05
 Grid integrated density:      32.999990184318
 Requested integration accuracy:   0.10E-06
 d= 0,ls=0.5,diis   263   -156.9202306346 -1.11D-05  2.46D-04  4.13D-05    91.3
                                                     3.26D-06  2.94D-05
 Grid integrated density:      32.999990187549
 Requested integration accuracy:   0.10E-06
 d= 0,ls=0.5,diis   264   -156.9202415185 -1.09D-05  2.13D-04  3.34D-05    91.7
                                                     1.96D-05  2.31D-05
 Grid integrated density:      32.999990195905
 Requested integration accuracy:   0.10E-06
 d= 0,ls=0.5,diis   265   -156.9202404264  1.09D-06  2.07D-04  4.24D-05    92.0
                                                     7.98D-06  3.18D-05
 Grid integrated density:      32.999990201009
 Requested integration accuracy:   0.10E-06
 d= 0,ls=0.5,diis   266   -156.9202451097 -4.68D-06  1.93D-04  4.18D-05    92.3
                                                     9.85D-06  3.20D-05
 Grid integrated density:      32.999990205894
 Requested integration accuracy:   0.10E-06
 d= 0,ls=0.5,diis   267   -156.9202485783 -3.47D-06  1.86D-04  4.17D-05    92.7
                                                     8.08D-06  3.27D-05
 Grid integrated density:      32.999990210509
 Requested integration accuracy:   0.10E-06
 d= 0,ls=0.5,diis   268   -156.9202519263 -3.35D-06  1.78D-04  4.19D-05    93.0
                                                     7.31D-06  3.34D-05
 Grid integrated density:      32.999990215326
 Requested integration accuracy:   0.10E-06
 d= 0,ls=0.5,diis   269   -156.9202550645 -3.14D-06  1.71D-04  4.21D-05    93.3
                                                     7.17D-06  3.39D-05
 Grid integrated density:      32.999990219726
 Requested integration accuracy:   0.10E-06
 d= 0,ls=0.5,diis   270   -156.9202577358 -2.67D-06  1.67D-04  4.29D-05    93.7
                                                     4.27D-06  3.50D-05
 Grid integrated density:      32.999990222880
 Requested integration accuracy:   0.10E-06
 d= 0,ls=0.5,diis   271   -156.9202620691 -4.33D-06  1.57D-04  4.08D-05    94.0
                                                     7.96D-06  3.34D-05
[...]
    41      1.932886   5 C  s                40     -1.687543   5 C  s         
    71     -1.246125   8 H  s                74     -1.125071   9 H  s         
    20     -1.113708   2 C  s                19      1.024577   2 C  s         
    13      1.004514   1 C  px               35      0.763320   4 H  s         
    70      0.741521   8 H  s                73      0.653294   9 H  s         
 
 Vector   68  Occ=0.000000D+00  E= 2.466239D+00
              MO Center= -2.5D-01,  4.4D-01,  1.6D+00, r^2= 2.3D+00
   Bfn.  Coefficient  Atom+Function         Bfn.  Coefficient  Atom+Function  
  ----- ------------  ---------------      ----- ------------  ---------------
    77      1.587072  10 H  s                80     -1.549557  11 H  s         
    76     -1.113311  10 H  s                79      1.089506  11 H  s         
    78     -0.936535  10 H  s                81      0.924630  11 H  s         
    74     -0.439687   9 H  s                71      0.378269   8 H  s         
    73      0.254365   9 H  s                47     -0.244751   5 C  py        
 
 Vector   69  Occ=0.000000D+00  E= 2.495919D+00
              MO Center=  3.9D-01, -3.0D-01, -8.4D-01, r^2= 5.0D+00
   Bfn.  Coefficient  Atom+Function         Bfn.  Coefficient  Atom+Function  
  ----- ------------  ---------------      ----- ------------  ---------------
    15      1.647929   1 C  pz               53      1.558432   6 H  s         
    21     -1.277810   2 C  s                 5     -1.078635   1 C  s         
    52     -1.046252   6 H  s                35      0.983716   4 H  s         
     6      0.909588   1 C  s                42     -0.894199   5 C  s         
     4      0.859956   1 C  s                59      0.778696   7 C  s         
 
 Vector   70  Occ=0.000000D+00  E= 2.537800D+00
              MO Center= -1.3D+00,  2.8D-01, -2.0D-01, r^2= 2.9D+00
   Bfn.  Coefficient  Atom+Function         Bfn.  Coefficient  Atom+Function  
  ----- ------------  ---------------      ----- ------------  ---------------
    71      1.390726   8 H  s                74     -1.396311   9 H  s         
    70     -1.026199   8 H  s                73      1.003814   9 H  s         
    50     -0.792533   5 C  py               68      0.723564   7 C  py        
    80      0.639098  11 H  s                14      0.628324   1 C  py        
    72     -0.576389   8 H  s                 5     -0.540847   1 C  s         
 
 Vector   71  Occ=0.000000D+00  E= 2.539131D+00
              MO Center= -7.7D-01,  3.2D-01,  6.5D-01, r^2= 4.3D+00
   Bfn.  Coefficient  Atom+Function         Bfn.  Coefficient  Atom+Function  
  ----- ------------  ---------------      ----- ------------  ---------------
    15     -1.307391   1 C  pz                5      1.285493   1 C  s         
    83      1.210715  12 H  s                 4     -1.094279   1 C  s         
    77     -0.997044  10 H  s                67      0.989815   7 C  px        
    33     -0.981031   3 H  s                82     -0.939638  12 H  s         
    30      0.931549   2 C  pz               80     -0.892565  11 H  s         
 
 Vector   72  Occ=0.000000D+00  E= 2.640323D+00
              MO Center=  1.3D+00, -4.1D-01, -2.5D-01, r^2= 3.6D+00
   Bfn.  Coefficient  Atom+Function         Bfn.  Coefficient  Atom+Function  
  ----- ------------  ---------------      ----- ------------  ---------------
    15      3.113885   1 C  pz               30     -2.698323   2 C  pz        
    28      1.617563   2 C  px               32      1.514477   3 H  s         
    54      1.336144   6 H  s                36     -1.279735   4 H  s         
    35     -1.187591   4 H  s                29     -1.073653   2 C  py        
    31     -1.053840   3 H  s                14      0.885620   1 C  py        
 
 Vector   73  Occ=0.000000D+00  E= 2.710027D+00
              MO Center=  6.0D-01, -3.1D-01, -6.3D-01, r^2= 3.1D+00
   Bfn.  Coefficient  Atom+Function         Bfn.  Coefficient  Atom+Function  
  ----- ------------  ---------------      ----- ------------  ---------------
    20      3.250535   2 C  s                21     -3.250160   2 C  s         
     5      3.198537   1 C  s                 4     -2.568138   1 C  s         
    19     -2.514247   2 C  s                 6     -2.327571   1 C  s         
    13      1.338120   1 C  px               51     -1.329122   5 C  pz        
    60      1.224785   7 C  s                15      1.190404   1 C  pz        
 
 Vector   74  Occ=0.000000D+00  E= 2.868987D+00
              MO Center=  1.0D+00, -4.2D-01, -5.7D-01, r^2= 2.5D+00
   Bfn.  Coefficient  Atom+Function         Bfn.  Coefficient  Atom+Function  
  ----- ------------  ---------------      ----- ------------  ---------------
    21      5.695765   2 C  s                 6     -4.951560   1 C  s         
    20     -4.075818   2 C  s                 5      3.734286   1 C  s         
    19      2.775538   2 C  s                 4     -2.474550   1 C  s         
    13     -2.110173   1 C  px               28     -1.294084   2 C  px        
    15     -1.002303   1 C  pz               30     -0.942558   2 C  pz        
 
 Vector   75  Occ=0.000000D+00  E= 2.908227D+00
              MO Center= -6.2D-01,  3.1D-01,  6.3D-01, r^2= 3.2D+00
   Bfn.  Coefficient  Atom+Function         Bfn.  Coefficient  Atom+Function  
  ----- ------------  ---------------      ----- ------------  ---------------
    60      4.167938   7 C  s                42      3.945411   5 C  s         
    59     -3.819379   7 C  s                41     -2.931211   5 C  s         
    58      2.752500   7 C  s                13      2.334021   1 C  px        
    40      2.029769   5 C  s                30      1.764659   2 C  pz        
    15     -1.569536   1 C  pz               21     -1.516942   2 C  s         
 
 Vector   76  Occ=0.000000D+00  E= 3.032808D+00
              MO Center= -7.8D-01,  2.7D-01,  2.6D-01, r^2= 2.8D+00
   Bfn.  Coefficient  Atom+Function         Bfn.  Coefficient  Atom+Function  
  ----- ------------  ---------------      ----- ------------  ---------------
    42      9.007148   5 C  s                60     -5.819473   7 C  s         
     6     -4.776013   1 C  s                41     -4.587144   5 C  s         
    59      3.034888   7 C  s                40      2.888622   5 C  s         
    15     -2.821638   1 C  pz               21      2.206070   2 C  s         
     5      2.167524   1 C  s                58     -2.009991   7 C  s         
 
 Vector   77  Occ=0.000000D+00  E= 1.170009D+01
              MO Center=  9.1D-01, -4.0D-01, -6.3D-01, r^2= 9.0D-01
   Bfn.  Coefficient  Atom+Function         Bfn.  Coefficient  Atom+Function  
  ----- ------------  ---------------      ----- ------------  ---------------
    18      2.344523   2 C  s                19     -2.351809   2 C  s         
     4     -2.212200   1 C  s                 3      2.188427   1 C  s         
    20      1.934526   2 C  s                 5      1.814616   1 C  s         
    17     -1.239112   2 C  s                21     -1.190007   2 C  s         
     2     -1.154294   1 C  s                 6     -1.098421   1 C  s         
 
 Vector   78  Occ=0.000000D+00  E= 1.187405D+01
              MO Center= -7.5D-01,  5.0D-01,  1.3D+00, r^2= 3.9D-01
   Bfn.  Coefficient  Atom+Function         Bfn.  Coefficient  Atom+Function  
  ----- ------------  ---------------      ----- ------------  ---------------
    58     -3.398373   7 C  s                57      3.278296   7 C  s         
    59      3.001390   7 C  s                60     -2.307394   7 C  s         
    56     -1.714743   7 C  s                51      0.452063   5 C  pz        
    42      0.305691   5 C  s                13     -0.264685   1 C  px        
    78      0.251568  10 H  s                81      0.251790  11 H  s         
 
 Vector   79  Occ=0.000000D+00  E= 1.192805D+01
              MO Center= -8.5D-01,  1.8D-01, -2.3D-01, r^2= 5.6D-01
   Bfn.  Coefficient  Atom+Function         Bfn.  Coefficient  Atom+Function  
  ----- ------------  ---------------      ----- ------------  ---------------
    40     -3.436513   5 C  s                39      3.251705   5 C  s         
    41      3.168184   5 C  s                42     -3.040350   5 C  s         
    38     -1.694077   5 C  s                 6      0.695855   1 C  s         
    13     -0.631765   1 C  px               19      0.601487   2 C  s         
    18     -0.582207   2 C  s                20     -0.552562   2 C  s         
 
 Vector   80  Occ=0.000000D+00  E= 1.207379D+01
              MO Center=  8.3D-01, -3.8D-01, -6.6D-01, r^2= 8.5D-01
   Bfn.  Coefficient  Atom+Function         Bfn.  Coefficient  Atom+Function  
  ----- ------------  ---------------      ----- ------------  ---------------
     4     -2.576936   1 C  s                 6     -2.472243   1 C  s         
     5      2.456579   1 C  s                 3      2.436779   1 C  s         
    19      2.310300   2 C  s                21      2.316562   2 C  s         
    18     -2.199852   2 C  s                20     -2.206272   2 C  s         
     2     -1.267920   1 C  s                17      1.146090   2 C  s         
 
 Vector   81  Occ=0.000000D+00  E= 6.265574D+01
              MO Center=  9.0D-01, -3.9D-01, -6.3D-01, r^2= 6.2D-01
   Bfn.  Coefficient  Atom+Function         Bfn.  Coefficient  Atom+Function  
  ----- ------------  ---------------      ----- ------------  ---------------
    17      2.109477   2 C  s                 2      1.974921   1 C  s         
    18     -1.590167   2 C  s                 3     -1.491152   1 C  s         
    16     -1.253605   2 C  s                 1     -1.173155   1 C  s         
    19      1.034696   2 C  s                 4      0.977015   1 C  s         
    20     -0.808205   2 C  s                 5     -0.760583   1 C  s         
 
 Vector   82  Occ=0.000000D+00  E= 6.282075D+01
              MO Center= -7.4D-01,  5.0D-01,  1.3D+00, r^2= 1.4D-01
   Bfn.  Coefficient  Atom+Function         Bfn.  Coefficient  Atom+Function  
  ----- ------------  ---------------      ----- ------------  ---------------
    56      2.932825   7 C  s                57     -2.238342   7 C  s         
    55     -1.732986   7 C  s                58      1.507138   7 C  s         
    59     -1.259848   7 C  s                60      0.955330   7 C  s         
     2     -0.240570   1 C  s                51     -0.193902   5 C  pz        
     3      0.181842   1 C  s                38      0.170696   5 C  s         
 
 Vector   83  Occ=0.000000D+00  E= 6.287362D+01
              MO Center= -8.2D-01,  1.7D-01, -2.2D-01, r^2= 3.5D-01
   Bfn.  Coefficient  Atom+Function         Bfn.  Coefficient  Atom+Function  
  ----- ------------  ---------------      ----- ------------  ---------------
    38      2.887212   5 C  s                39     -2.212468   5 C  s         
    37     -1.703315   5 C  s                40      1.520718   5 C  s         
    41     -1.331675   5 C  s                42      1.276124   5 C  s         
    17     -0.611257   2 C  s                18      0.466304   2 C  s         
    16      0.361194   2 C  s                19     -0.312961   2 C  s         
 
 Vector   84  Occ=0.000000D+00  E= 6.302264D+01
              MO Center=  8.1D-01, -3.8D-01, -6.6D-01, r^2= 6.3D-01
   Bfn.  Coefficient  Atom+Function         Bfn.  Coefficient  Atom+Function  
  ----- ------------  ---------------      ----- ------------  ---------------
     2      2.176065   1 C  s                17     -1.958737   2 C  s         
     3     -1.673666   1 C  s                18      1.504973   2 C  s         
     1     -1.280661   1 C  s                 4      1.156057   1 C  s         
    16      1.153089   2 C  s                 6      1.065666   1 C  s         
     5     -1.048698   1 C  s                19     -1.031953   2 C  s         
 

   alpha - beta orbital overlaps 
   ----------------------------- 


   alpha      1      2      3      4      5      6      7      8      9     10
    beta      1      2      3      4      5      6      7      8      9     10
 overlap   1.000  1.000  1.000  1.000  0.999  0.999  1.000  1.000  0.999  0.999


   alpha     11     12     13     14     15     16     17     18     19     20
    beta     11     12     13     14     15     16     18     17     19     20
 overlap   1.000  1.000  0.998  0.998  1.000  0.999  0.841  0.852  0.978  0.977


   alpha     21     22     23     24     25     26     27     28     29     30
    beta     21     22     23     24     25     26     27     28     29     30
 overlap   0.804  0.829  0.983  0.982  1.000  0.997  0.999  0.998  0.992  0.992


   alpha     31     32     33     34     35     36     37     38     39     40
    beta     31     32     33     34     35     36     37     38     39     40
 overlap   0.996  0.999  0.751  0.726  0.900  0.874  0.999  0.974  0.971  0.995


   alpha     41     42     43     44     45     46     47     48     49     50
    beta     41     42     43     44     45     46     47     48     49     50
 overlap   0.975  0.972  0.978  0.990  0.990  0.994  1.000  0.999  1.000  0.904


   alpha     51     52     53     54     55     56     57     58     59     60
    beta     51     52     53     55     54     56     58     57     59     60
 overlap   0.904  0.999  1.000  0.761  0.769  0.970  0.974  0.998  0.999  0.999


   alpha     61     62     63     64     65     66     67     68     69     70
    beta     61     62     63     64     65     66     67     68     69     70
 overlap   0.981  0.982  1.000  1.000  1.000  0.999  1.000  1.000  1.000  0.915


   alpha     71     72     73     74     75     76     77     78     79     80
    beta     71     72     73     74     75     76     77     78     79     80
 overlap   0.915  1.000  1.000  1.000  1.000  1.000  1.000  1.000  1.000  1.000


   alpha     81     82     83     84
    beta     81     82     83     84
 overlap   1.000  1.000  1.000  1.000

     --------------------------
     Expectation value of S2:  
     --------------------------
      <S2> =      0.7512 (Exact =     0.7500)
 

 center of mass
 --------------
 x =   0.03017502 y =  -0.02054922 z =  -0.05257097

 moments of inertia (a.u.)
 ------------------
         212.918383829293          77.278828099269          82.632715940725
          77.278828099269         388.764938504313         -58.943171629669
          82.632715940725         -58.943171629669         268.275023991338
 
     Multipole analysis of the density
     ---------------------------------
 
     L   x y z        total         alpha         beta         nuclear
     -   - - -        -----         -----         ----         -------
     0   0 0 0     -1.000000    -17.000000    -16.000000     32.000000
 
     1   1 0 0     -0.177352     -0.067456     -0.109896     -0.000000
     1   0 1 0      0.457728      0.495167     -0.037439     -0.000000
     1   0 0 1      0.021956      0.091631     -0.069675      0.000000
 
     2   2 0 0    -32.810982    -91.574072    -81.091219    139.854309
     2   1 1 0      1.258990     24.387317     23.429185    -46.557512
     2   1 0 1      2.975904     26.610305     24.140359    -47.774759
     2   0 2 0    -27.886637    -32.623504    -27.574763     32.311630
     2   0 1 1     -0.394033    -18.324901    -17.995555     35.926423
     2   0 0 2    -28.274457    -71.743880    -65.498566    108.967988
 

 Task  times  cpu:      167.0s     wall:      175.6s
 
 
                                NWChem Input Module
                                -------------------
 
 
 Summary of allocated global arrays
-----------------------------------
  No active global arrays



                         GA Statistics for process    0
                         ------------------------------

       create   destroy   get      put      acc     scatter   gather  read&inc
calls: 1.02e+04 1.02e+04 1.44e+06 6.56e+04 1.12e+06    0        0     1.39e+04 
number of processes/call 8.06e+00 6.65e+01 6.19e+00 0.00e+00 0.00e+00
bytes total:             1.86e+09 2.32e+08 1.03e+09 0.00e+00 0.00e+00 1.11e+05
bytes remote:            1.53e+09 1.34e+08 8.79e+08 0.00e+00 0.00e+00 0.00e+00
Max memory consumed for GA by this process: 459552 bytes
 
 
 
                                     CITATION
                                     --------
                Please cite the following reference when publishing
                           results obtained with NWChem:
 
          E. Apr, E. J. Bylaska, W. A. de Jong, N. Govind, K. Kowalski,
       T. P. Straatsma, M. Valiev, H. J. J. van Dam, Y. Alexeev, J. Anchell,
       V. Anisimov, F. W. Aquino, R. Atta-Fynn, J. Autschbach, N. P. Bauman,
     J. C. Becca, D. E. Bernholdt, K. Bhaskaran-Nair, S. Bogatko, P. Borowski,
        J. Boschen, J. Brabec, A. Bruner, E. Caut, Y. Chen, G. N. Chuev,
      C. J. Cramer, J. Daily, M. J. O. Deegan, T. H. Dunning Jr., M. Dupuis,
   K. G. Dyall, G. I. Fann, S. A. Fischer, A. Fonari, H. Frchtl, L. Gagliardi,
      J. Garza, N. Gawande, S. Ghosh, K. Glaesemann, A. W. Gtz, J. Hammond,
       V. Helms, E. D. Hermes, K. Hirao, S. Hirata, M. Jacquelin, L. Jensen,
   B. G. Johnson, H. Jnsson, R. A. Kendall, M. Klemm, R. Kobayashi, V. Konkov,
      S. Krishnamoorthy, M. Krishnan, Z. Lin, R. D. Lins, R. J. Littlefield,
      A. J. Logsdail, K. Lopata, W. Ma, A. V. Marenich, J. Martin del Campo,
   D. Mejia-Rodriguez, J. E. Moore, J. M. Mullin, T. Nakajima, D. R. Nascimento,
    J. A. Nichols, P. J. Nichols, J. Nieplocha, A. Otero-de-la-Roza, B. Palmer,
    A. Panyala, T. Pirojsirikul, B. Peng, R. Peverati, J. Pittner, L. Pollack,
   R. M. Richard, P. Sadayappan, G. C. Schatz, W. A. Shelton, D. W. Silverstein,
   D. M. A. Smith, T. A. Soares, D. Song, M. Swart, H. L. Taylor, G. S. Thomas,
            V. Tipparaju, D. G. Truhlar, K. Tsemekhman, T. Van Voorhis,
     . Vzquez-Mayagoitia, P. Verma, O. Villa, A. Vishnu, K. D. Vogiatzis,
        D. Wang, J. H. Weare, M. J. Williamson, T. L. Windus, K. Woliski,
        A. T. Wong, Q. Wu, C. Yang, Q. Yu, M. Zacharias, Z. Zhang, Y. Zhao,
                                and R. J. Harrison
                        "NWChem: Past, present, and future
                         J. Chem. Phys. 152, 184102 (2020)
                               doi:10.1063/5.0004997
 
                                      AUTHORS
                                      -------
     E. Apra, E. J. Bylaska, N. Govind, K. Kowalski, M. Valiev, W. A. de Jong,
      T. P. Straatsma, H. J. J. van Dam, D. Wang, T. L. Windus, N. P. Bauman,
       A. Panyala, J. Hammond, J. Autschbach, K. Bhaskaran-Nair, J. Brabec,
    K. Lopata, S. A. Fischer, S. Krishnamoorthy, M. Jacquelin, W. Ma, M. Klemm,
       O. Villa, Y. Chen, V. Anisimov, F. Aquino, S. Hirata, M. T. Hackler,
           Eric Hermes, L. Jensen, J. E. Moore, J. C. Becca, V. Konjkov,
            D. Mejia-Rodriguez, T. Risthaus, M. Malagoli, A. Marenich,
   A. Otero-de-la-Roza, J. Mullin, P. Nichols, R. Peverati, J. Pittner, Y. Zhao,
        P.-D. Fan, A. Fonari, M. J. Williamson, R. J. Harrison, J. R. Rehr,
      M. Dupuis, D. Silverstein, D. M. A. Smith, J. Nieplocha, V. Tipparaju,
      M. Krishnan, B. E. Van Kuiken, A. Vazquez-Mayagoitia, M. Swart, Q. Wu,
   T. Van Voorhis, A. A. Auer, M. Nooijen, L. D. Crosby, E. Brown, G. Cisneros,
     G. I. Fann, H. Fruchtl, J. Garza, K. Hirao, R. A. Kendall, J. A. Nichols,
       K. Tsemekhman, K. Wolinski, J. Anchell, D. E. Bernholdt, P. Borowski,
       T. Clark, D. Clerc, H. Dachsel, M. J. O. Deegan, K. Dyall, D. Elwood,
      E. Glendening, M. Gutowski, A. C. Hess, J. Jaffe, B. G. Johnson, J. Ju,
        R. Kobayashi, R. Kutteh, Z. Lin, R. Littlefield, X. Long, B. Meng,
      T. Nakajima, S. Niu, L. Pollack, M. Rosing, K. Glaesemann, G. Sandrone,
      M. Stave, H. Taylor, G. Thomas, J. H. van Lenthe, A. T. Wong, Z. Zhang.

 Total times  cpu:      167.1s     wall:      175.8s
