 
             Northwest Computational Chemistry Package (NWChem) 7.0.0
             --------------------------------------------------------
 
 
                    Environmental Molecular Sciences Laboratory
                       Pacific Northwest National Laboratory
                                Richland, WA 99352
 
                              Copyright (c) 1994-2020
                       Pacific Northwest National Laboratory
                            Battelle Memorial Institute
 
             NWChem is an open-source computational chemistry package
                        distributed under the terms of the
                      Educational Community License (ECL) 2.0
             A copy of the license is included with this distribution
                              in the LICENSE.TXT file
 
                                  ACKNOWLEDGMENT
                                  --------------

            This software and its documentation were developed at the
            EMSL at Pacific Northwest National Laboratory, a multiprogram
            national laboratory, operated for the U.S. Department of Energy
            by Battelle under Contract Number DE-AC05-76RL01830. Support
            for this work was provided by the Department of Energy Office
            of Biological and Environmental Research, Office of Basic
            Energy Sciences, and the Office of Advanced Scientific Computing.


                                NWChem Input Module
                                -------------------
 
 
 Summary of "ao basis" -> "" (spherical)
 ------------------------------------------------------------------------------
       Tag                 Description            Shells   Functions and Types
 ---------------- ------------------------------  ------  ---------------------
 *                        ahlrichs_vtz                on all atoms 



 Scaling coordinates for geometry "geometry" by  1.889725989
 (inverse scale =  0.529177249)

 
 
                             Geometry "geometry" -> ""
                             -------------------------
 
 Output coordinates in angstroms (scale by  1.889725989 to convert to a.u.)
 
  No.       Tag          Charge          X              Y              Z
 ---- ---------------- ---------- -------------- -------------- --------------
    1 C                    6.0000     0.74532643    -0.51756648    -1.33648511
    2 C                    6.0000     1.95895077    -0.72604011    -0.80412369
    3 H                    1.0000     2.17521108    -0.53823327     0.24927633
    4 H                    1.0000     2.78871660    -1.09589824    -1.40876349
    5 C                    6.0000    -0.47908100    -0.01158466    -0.61322382
    6 H                    1.0000     0.59551869    -0.72667429    -2.40303135
    7 C                    6.0000    -0.30735245     0.29084909     0.88151995
    8 H                    1.0000    -0.84085596     0.89968556    -1.12794861
    9 H                    1.0000    -1.29442023    -0.74972231    -0.74204456
   10 H                    1.0000     0.48989420     1.04189571     1.01365714
   11 H                    1.0000     0.03400582    -0.61993885     1.40216628
   12 C                    6.0000    -1.60479910     0.79792512     1.52821767
   13 H                    1.0000    -1.95219255     1.72521400     1.04588270
   14 H                    1.0000    -1.46335538     1.00940051     2.59837978
   15 H                    1.0000    -2.41079010     0.05277351     1.43699589
 
      Atomic Mass 
      ----------- 
 
      C                 12.000000
      H                  1.007825
 

 Effective nuclear repulsion energy (a.u.)     170.9685503550

            Nuclear Dipole moment (a.u.) 
            ----------------------------
        X                 Y               Z
 ---------------- ---------------- ----------------
    -0.0000000000    -0.0000000000    -0.0000000000
 
 
            XYZ format geometry
            -------------------
    15
 geometry
 C                     0.74532643    -0.51756648    -1.33648511
 C                     1.95895077    -0.72604011    -0.80412369
 H                     2.17521108    -0.53823327     0.24927633
 H                     2.78871660    -1.09589824    -1.40876349
 C                    -0.47908100    -0.01158466    -0.61322382
 H                     0.59551869    -0.72667429    -2.40303135
 C                    -0.30735245     0.29084909     0.88151995
 H                    -0.84085596     0.89968556    -1.12794861
 H                    -1.29442023    -0.74972231    -0.74204456
 H                     0.48989420     1.04189571     1.01365714
 H                     0.03400582    -0.61993885     1.40216628
 C                    -1.60479910     0.79792512     1.52821767
 H                    -1.95219255     1.72521400     1.04588270
 H                    -1.46335538     1.00940051     2.59837978
 H                    -2.41079010     0.05277351     1.43699589
 
 ==============================================================================
                                internuclear distances
 ------------------------------------------------------------------------------
       center one      |      center two      | atomic units |  angstroms
 ------------------------------------------------------------------------------
    2 C                |   1 C                |     2.53516  |     1.34155
    3 H                |   2 C                |     2.06291  |     1.09165
    4 H                |   2 C                |     2.06222  |     1.09128
    5 C                |   1 C                |     2.85236  |     1.50940
    6 H                |   1 C                |     2.07327  |     1.09713
    7 C                |   5 C                |     2.90011  |     1.53467
    8 H                |   5 C                |     2.09260  |     1.10736
    9 H                |   5 C                |     2.09258  |     1.10735
   10 H                |   7 C                |     2.08482  |     1.10324
   11 H                |   7 C                |     2.08482  |     1.10324
   12 C                |   7 C                |     2.90226  |     1.53581
   13 H                |  12 C                |     2.08144  |     1.10145
   14 H                |  12 C                |     2.07868  |     1.09999
   15 H                |  12 C                |     2.08144  |     1.10145
 ------------------------------------------------------------------------------
                         number of included internuclear distances:         14
 ==============================================================================



 ==============================================================================
                                 internuclear angles
 ------------------------------------------------------------------------------
        center 1       |       center 2       |       center 3       |  degrees
 ------------------------------------------------------------------------------
    2 C                |   1 C                |   5 C                |   126.57
    2 C                |   1 C                |   6 H                |   118.66
    5 C                |   1 C                |   6 H                |   114.77
    1 C                |   2 C                |   3 H                |   122.37
    1 C                |   2 C                |   4 H                |   121.38
    3 H                |   2 C                |   4 H                |   116.25
    1 C                |   5 C                |   7 C                |   116.23
    1 C                |   5 C                |   8 H                |   108.55
    1 C                |   5 C                |   9 H                |   108.55
    7 C                |   5 C                |   8 H                |   109.09
    7 C                |   5 C                |   9 H                |   109.09
    8 H                |   5 C                |   9 H                |   104.71
    5 C                |   7 C                |  10 H                |   109.37
    5 C                |   7 C                |  11 H                |   109.36
    5 C                |   7 C                |  12 C                |   112.37
   10 H                |   7 C                |  11 H                |   106.37
   10 H                |   7 C                |  12 C                |   109.59
   11 H                |   7 C                |  12 C                |   109.59
    7 C                |  12 C                |  13 H                |   111.10
    7 C                |  12 C                |  14 H                |   111.38
    7 C                |  12 C                |  15 H                |   111.10
   13 H                |  12 C                |  14 H                |   107.74
   13 H                |  12 C                |  15 H                |   107.61
   14 H                |  12 C                |  15 H                |   107.74
 ------------------------------------------------------------------------------
                            number of included internuclear angles:         24
 ==============================================================================



                              Aldehyde and Ketone set
                              -----------------------
 
                                 NWChem DFT Module
                                 -----------------
 
 
                              Aldehyde and Ketone set
 
 
                      Basis "ao basis" -> "ao basis" (spherical)
                      -----
  C (Carbon)
  ----------
            Exponent  Coefficients 
       -------------- ---------------------------------------------------------
  1 S  8.50603840E+03  0.000534
  1 S  1.27573290E+03  0.004125
  1 S  2.90311870E+02  0.021171
  1 S  8.20562000E+01  0.082418
  1 S  2.64796410E+01  0.240129
 
  2 S  9.24145850E+00  1.000000
 
  3 S  3.36435300E+00  1.000000
 
  4 S  8.71741640E-01  1.000000
 
  5 S  3.63523520E-01  1.000000
 
  6 S  1.28731350E-01  1.000000
 
  7 P  3.47094960E+01  0.005330
  7 P  7.95908830E+00  0.035866
  7 P  2.37869720E+00  0.142003
  7 P  8.15400650E-01  0.342031
 
  8 P  2.89537850E-01  1.000000
 
  9 P  1.00847540E-01  1.000000
 
  H (Hydrogen)
  ------------
            Exponent  Coefficients 
       -------------- ---------------------------------------------------------
  1 S  3.40613410E+01  0.006025
  1 S  5.12357460E+00  0.045021
  1 S  1.16466260E+00  0.201897
 
  2 S  3.27230410E-01  1.000000
 
  3 S  1.03072410E-01  1.000000
 


 Summary of "ao basis" -> "ao basis" (spherical)
 ------------------------------------------------------------------------------
       Tag                 Description            Shells   Functions and Types
 ---------------- ------------------------------  ------  ---------------------
 C                        ahlrichs vtz               9       15   6s3p
 H                        ahlrichs vtz               3        3   3s




 Summary of "ao basis" -> "ao basis" (spherical)
 ------------------------------------------------------------------------------
       Tag                 Description            Shells   Functions and Types
 ---------------- ------------------------------  ------  ---------------------
 C                        ahlrichs vtz               9       15   6s3p
 H                        ahlrichs vtz               3        3   3s


  Caching 1-el integrals 
 
            General Information
            -------------------
          SCF calculation type: DFT
          Wavefunction type:  spin polarized.
          No. of atoms     :    15
          No. of electrons :    41
           Alpha electrons :    21
            Beta electrons :    20
          Charge           :    -1
          Spin multiplicity:     2
          Use of symmetry is: off; symmetry adaption is: off
          Maximum number of iterations: 999
          This is a Direct SCF calculation.
          AO basis - number of functions:   105
                     number of shells:    75
          Convergence on energy requested:  1.00D-08
          Convergence on density requested:  1.00D-07
          Convergence on gradient requested:  1.00D-06
 
              XC Information
              --------------
                        PBE96 Method XC Functional
          PerdewBurkeErnzerhof Exchange Functional  1.000          
            Perdew 1991 LDA Correlation Functional  1.000 local    
           PerdewBurkeErnz. Correlation Functional  1.000 non-local
 
             Grid Information
             ----------------
          Grid used for XC integration:  fine      
          Radial quadrature: Mura-Knowles        
          Angular quadrature: Lebedev. 
          Tag              B.-S. Rad. Rad. Pts. Rad. Cut. Ang. Pts.
          ---              ---------- --------- --------- ---------
          C                   0.70       70          14.0       590
          H                   0.35       60          15.0       590
          Grid pruning is: on 
          Number of quadrature shells:   950
          Spatial weights used:  Erf1
 
          Convergence Information
          -----------------------
          Convergence aids based upon iterative change in 
          total energy or number of iterations. 
          Levelshifting, if invoked, occurs when the 
          HOMO/LUMO gap drops below (HL_TOL):  1.00D-02
          DIIS, if invoked, will attempt to extrapolate 
          using up to (NFOCK): 10 stored Fock matrices.

                    Damping( 0%)  Levelshifting(0.5)       DIIS
                  --------------- ------------------- ---------------
          dE  on:    start            ASAP                start   
          dE off:    2 iters        999 iters           999 iters 

 
      Screening Tolerance Information
      -------------------------------
          Density screening/tol_rho:  1.00D-12
          AO Gaussian exp screening on grid/accAOfunc:  18
          CD Gaussian exp screening on grid/accCDfunc:  20
          XC Gaussian exp screening on grid/accXCfunc:  20
          Schwarz screening/accCoul:  1.00D-12

      Dispersion Parameters
      ---------------------

           DFT-D3BJ Model   
          s6 scale factor  :        1.000000000000
          s8 scale factor  :        0.787500000000
          a1 parameter     :        0.428900000000
          a2 parameter     :        4.440700000000
              vdW contrib  :       -0.010809053189


 Forcing the number of linearly dependent vectors to be  0
 
      Superposition of Atomic Density Guess
      -------------------------------------
 
 Sum of atomic energies:        -193.35381764
   Time after variat. SCF:      0.2
   Time prior to 1st pass:      0.2

 Grid_pts file          = ./15_nButCHCH2.gridpts.00
 Record size in doubles =  12289        No. of grid_pts per rec  =   3070
 Max. records in memory =     15        Max. recs in file   =  67550051

 Grid integrated density:      40.000000311997
 Requested integration accuracy:   0.10E-06

           Memory utilization after 1st SCF pass: 
           Heap Space remaining (MW):        0.00                 234
          Stack Space remaining (MW):      288.36           288356844

   convergence    iter        energy       DeltaE   RMS-Dens  Diis-err    time
 ---------------- ----- ----------------- --------- --------- ---------  ------
 d= 0,ls=0.0,diis     1   -196.7811799814 -3.68D+02  1.55D-02  1.47D+01     0.6
                                                     1.35D-02  1.34D+01
 d= 0,ls=0.0,diis     2   -195.7162592544  1.06D+00  1.35D-01  8.07D-01     1.1
                                                     1.35D-01  7.32D-01
 Grid integrated density:      41.000009008054
 Requested integration accuracy:   0.10E-06
 d= 0,ls=0.0,diis     3   -193.9172157246  1.80D+00  1.35D-01  2.86D+00     1.7
                                                     1.35D-01  2.48D+00
 Grid integrated density:      41.000004296172
 Requested integration accuracy:   0.10E-06
 d= 0,ls=0.0,diis     4   -196.0743182378 -2.16D+00  9.44D-02  1.59D-01     2.3
                                                     4.18D-03  1.51D-01
 Grid integrated density:      41.000008684939
 Requested integration accuracy:   0.10E-06
 d= 0,ls=0.5,diis     5   -196.1161267138 -4.18D-02  3.96D-03  8.58D-02     2.9
                                                     8.56D-04  9.03D-02
 Grid integrated density:      41.000007687595
 Requested integration accuracy:   0.10E-06
 d= 0,ls=0.5,diis     6   -196.1460533847 -2.99D-02  3.62D-03  3.46D-02     3.5
                                                     8.23D-04  3.66D-02
 Grid integrated density:      41.000007078820
 Requested integration accuracy:   0.10E-06
 d= 0,ls=0.5,diis     7   -196.1602596699 -1.42D-02  3.57D-03  1.53D-02     4.1
                                                     7.92D-04  1.63D-02
 Grid integrated density:      41.000006547877
 Requested integration accuracy:   0.10E-06
 d= 0,ls=0.5,diis     8   -196.1682638597 -8.00D-03  3.54D-03  5.72D-03     4.7
                                                     5.57D-04  5.79D-03
 Grid integrated density:      41.000006253356
 Requested integration accuracy:   0.10E-06
 d= 0,ls=0.5,diis     9   -196.1718950525 -3.63D-03  3.50D-03  1.69D-03     5.3
                                                     3.27D-04  1.45D-03
 Grid integrated density:      41.000006160486
 Requested integration accuracy:   0.10E-06
 d= 0,ls=0.5,diis    10   -196.1733056523 -1.41D-03  3.38D-03  5.45D-04     5.9
                                                     1.64D-04  2.81D-04
 Grid integrated density:      41.000006208725
 Requested integration accuracy:   0.10E-06
 d= 0,ls=0.5,diis    11   -196.1739529411 -6.47D-04  3.21D-03  2.97D-04     6.5
                                                     8.46D-05  6.02D-05
 Grid integrated density:      41.000006319704
 Requested integration accuracy:   0.10E-06
 d= 0,ls=0.5,diis    12   -196.1744101766 -4.57D-04  2.98D-03  2.18D-04     7.1
                                                     6.75D-05  1.18D-05
 Grid integrated density:      41.000006475451
 Requested integration accuracy:   0.10E-06
 d= 0,ls=0.5,diis    13   -196.1747623239 -3.52D-04  2.78D-03  2.02D-04     7.6
                                                     5.55D-05  1.02D-05
 Grid integrated density:      41.000006626921
 Requested integration accuracy:   0.10E-06
 d= 0,ls=0.5,diis    14   -196.1750782881 -3.16D-04  2.58D-03  1.88D-04     8.2
                                                     1.02D-04  1.16D-05
 Grid integrated density:      41.000006787249
 Requested integration accuracy:   0.10E-06
 d= 0,ls=0.5,diis    15   -196.1753229561 -2.45D-04  2.39D-03  2.11D-04     8.8
                                                     4.76D-05  3.45D-05
 Grid integrated density:      41.000006928833
 Requested integration accuracy:   0.10E-06
 d= 0,ls=0.5,diis    16   -196.1755740684 -2.51D-04  2.18D-03  2.02D-04     9.3
                                                     8.97D-05  3.72D-05
 Grid integrated density:      41.000007063081
 Requested integration accuracy:   0.10E-06
 d= 0,ls=0.5,diis    17   -196.1757605566 -1.86D-04  2.00D-03  2.23D-04     9.9
                                                     7.14D-05  5.74D-05
 Grid integrated density:      41.000007187003
 Requested integration accuracy:   0.10E-06
 d= 0,ls=0.5,diis    18   -196.1759299269 -1.69D-04  1.89D-03  2.38D-04    10.5
                                                     3.65D-05  7.48D-05
 Grid integrated density:      41.000007295560
 Requested integration accuracy:   0.10E-06
 d= 0,ls=0.5,diis    19   -196.1761116434 -1.82D-04  1.72D-03  2.26D-04    11.1
                                                     7.43D-05  7.30D-05
 Grid integrated density:      41.000007405643
 Requested integration accuracy:   0.10E-06
 d= 0,ls=0.5,diis    20   -196.1762287446 -1.17D-04  1.56D-03  2.56D-04    11.7
                                                     7.63D-05  1.01D-04
 Grid integrated density:      41.000007511464
 Requested integration accuracy:   0.10E-06
 d= 0,ls=0.5,diis    21   -196.1763103188 -8.16D-05  1.50D-03  3.04D-04    12.3
                                                     1.66D-05  1.43D-04
 Grid integrated density:      41.000007568009
 Requested integration accuracy:   0.10E-06
 d= 0,ls=0.5,diis    22   -196.1764809030 -1.71D-04  1.42D-03  2.46D-04    12.9
                                                     4.46D-05  1.04D-04
 Grid integrated density:      41.000007660448
 Requested integration accuracy:   0.10E-06
 d= 0,ls=0.5,diis    23   -196.1765718999 -9.10D-05  1.38D-03  2.65D-04    13.5
                                                     2.20D-05  1.25D-04
 Grid integrated density:      41.000007737072
 Requested integration accuracy:   0.10E-06
 d= 0,ls=0.5,diis    24   -196.1766983781 -1.26D-04  1.32D-03  2.37D-04    14.1
                                                     2.38D-05  1.08D-04
 Grid integrated density:      41.000007807103
 Requested integration accuracy:   0.10E-06
 d= 0,ls=0.5,diis    25   -196.1767953848 -9.70D-05  1.24D-03  2.39D-04    14.7
                                                     2.87D-05  1.16D-04
 Grid integrated density:      41.000007872018
 Requested integration accuracy:   0.10E-06
 d= 0,ls=0.5,diis    26   -196.1768819149 -8.65D-05  1.19D-03  2.35D-04    15.2
                                                     1.91D-05  1.18D-04
 Grid integrated density:      41.000007930556
 Requested integration accuracy:   0.10E-06
 d= 0,ls=0.5,diis    27   -196.1769694862 -8.76D-05  1.14D-03  2.23D-04    15.8
                                                     2.36D-05  1.14D-04
 Grid integrated density:      41.000007985817
 Requested integration accuracy:   0.10E-06
 d= 0,ls=0.5,diis    28   -196.1770468184 -7.73D-05  1.09D-03  2.17D-04    16.5
                                                     2.87D-05  1.14D-04
 Grid integrated density:      41.000008040149
 Requested integration accuracy:   0.10E-06
 d= 0,ls=0.5,diis    29   -196.1771078855 -6.11D-05  1.02D-03  2.20D-04    17.1
                                                     2.37D-05  1.22D-04
 Grid integrated density:      41.000008094360
 Requested integration accuracy:   0.10E-06
 d= 0,ls=0.5,diis    30   -196.1771646185 -5.67D-05  8.80D-04  2.24D-04    17.6
                                                     6.56D-05  1.30D-04
 Grid integrated density:      41.000008147749
 Requested integration accuracy:   0.10E-06
 d= 0,ls=0.5,diis    31   -196.1771603212  4.30D-06  8.78D-04  2.74D-04    18.2
                                                     2.45D-05  1.72D-04
 Grid integrated density:      41.000008171992
 Requested integration accuracy:   0.10E-06
 d= 0,ls=0.5,diis    32   -196.1772530753 -9.28D-05  8.62D-04  2.23D-04    18.8
                                                     1.44D-05  1.34D-04
 Grid integrated density:      41.000008197368
 Requested integration accuracy:   0.10E-06
 d= 0,ls=0.5,diis    33   -196.1773329914 -7.99D-05  8.04D-04  1.88D-04    19.4
                                                     3.63D-05  1.09D-04
 Grid integrated density:      41.000008244101
 Requested integration accuracy:   0.10E-06
 d= 0,ls=0.5,diis    34   -196.1773541215 -2.11D-05  7.62D-04  2.05D-04    19.9
                                                     1.27D-05  1.24D-04
 Grid integrated density:      41.000008275781
 Requested integration accuracy:   0.10E-06
 d= 0,ls=0.5,diis    35   -196.1773963939 -4.23D-05  7.31D-04  2.02D-04    20.5
                                                     9.80D-06  1.25D-04
 Grid integrated density:      41.000008309868
 Requested integration accuracy:   0.10E-06
 d= 0,ls=0.5,diis    36   -196.1774391733 -4.28D-05  7.03D-04  1.93D-04    21.1
                                                     1.15D-05  1.18D-04
 Grid integrated density:      41.000008335224
 Requested integration accuracy:   0.10E-06
 d= 0,ls=0.5,diis    37   -196.1774816182 -4.24D-05  6.76D-04  1.80D-04    21.7
                                                     9.75D-06  1.09D-04
 Grid integrated density:      41.000008360692
 Requested integration accuracy:   0.10E-06
 d= 0,ls=0.5,diis    38   -196.1775187532 -3.71D-05  6.62D-04  1.72D-04    22.3
                                                     9.15D-06  1.04D-04
 Grid integrated density:      41.000008379365
 Requested integration accuracy:   0.10E-06
 d= 0,ls=0.5,diis    39   -196.1775701491 -5.14D-05  7.33D-04  1.47D-04    22.9
                                                     4.66D-05  8.65D-05
 Grid integrated density:      41.000008397487
 Requested integration accuracy:   0.10E-06
 d= 0,ls=0.5,diis    40   -196.1776519480 -8.18D-05  7.08D-04  1.00D-04    23.5
                                                     8.31D-06  5.28D-05
 Grid integrated density:      41.000008421587
 Requested integration accuracy:   0.10E-06
 d= 0,ls=0.5,diis    41   -196.1776953438 -4.34D-05  6.79D-04  8.76D-05    24.0
                                                     4.49D-06  4.49D-05
 Grid integrated density:      41.000008446767
 Requested integration accuracy:   0.10E-06
 d= 0,ls=0.5,diis    42   -196.1777325858 -3.72D-05  6.46D-04  7.80D-05    24.6
                                                     5.67D-06  3.90D-05
 Grid integrated density:      41.000008470709
 Requested integration accuracy:   0.10E-06
 d= 0,ls=0.5,diis    43   -196.1777660928 -3.35D-05  6.30D-04  6.97D-05    25.2
                                                     4.03D-06  3.40D-05
 Grid integrated density:      41.000008495581
 Requested integration accuracy:   0.10E-06
 d= 0,ls=0.5,diis    44   -196.1777976690 -3.16D-05  5.95D-04  6.26D-05    25.8
                                                     1.21D-05  3.01D-05
 Grid integrated density:      41.000008521109
 Requested integration accuracy:   0.10E-06
 d= 0,ls=0.5,diis    45   -196.1778217872 -2.41D-05  5.66D-04  6.15D-05    26.4
                                                     7.25D-06  3.06D-05
 Grid integrated density:      41.000008544226
 Requested integration accuracy:   0.10E-06
 d= 0,ls=0.5,diis    46   -196.1778473891 -2.56D-05  5.46D-04  5.71D-05    27.0
                                                     4.00D-06  2.83D-05
 Grid integrated density:      41.000008564402
 Requested integration accuracy:   0.10E-06
 d= 0,ls=0.5,diis    47   -196.1778735221 -2.61D-05  5.24D-04  5.16D-05    27.6
                                                     6.41D-06  2.49D-05
 Grid integrated density:      41.000008585163
 Requested integration accuracy:   0.10E-06
 d= 0,ls=0.5,diis    48   -196.1778970031 -2.35D-05  5.01D-04  4.80D-05    28.1
                                                     7.13D-06  2.29D-05
 Grid integrated density:      41.000008605068
 Requested integration accuracy:   0.10E-06
 d= 0,ls=0.5,diis    49   -196.1779189057 -2.19D-05  4.82D-04  4.55D-05    28.7
                                                     5.47D-06  2.17D-05
 Grid integrated density:      41.000008623762
 Requested integration accuracy:   0.10E-06
 d= 0,ls=0.5,diis    50   -196.1779409755 -2.21D-05  4.69D-04  4.26D-05    29.3
                                                     4.83D-06  2.00D-05
 Grid integrated density:      41.000008640118
 Requested integration accuracy:   0.10E-06
 d= 0,ls=0.5,diis    51   -196.1779630639 -2.21D-05  4.54D-04  3.95D-05    29.8
                                                     3.63D-06  1.82D-05
 Grid integrated density:      41.000008655462
 Requested integration accuracy:   0.10E-06
 d= 0,ls=0.5,diis    52   -196.1779853211 -2.23D-05  4.42D-04  3.64D-05    30.4
                                                     3.28D-06  1.62D-05
 Grid integrated density:      41.000008669003
 Requested integration accuracy:   0.10E-06
 d= 0,ls=0.5,diis    53   -196.1780077976 -2.25D-05  4.55D-04  3.34D-05    30.9
                                                     5.66D-06  1.40D-05
 Grid integrated density:      41.000008685745
 Requested integration accuracy:   0.10E-06
 d= 0,ls=0.5,diis    54   -196.1780326053 -2.48D-05  4.38D-04  2.95D-05    31.7
                                                     4.93D-06  1.15D-05
 Grid integrated density:      41.000008700139
 Requested integration accuracy:   0.10E-06
 d= 0,ls=0.5,diis    55   -196.1780555535 -2.29D-05  4.31D-04  2.76D-05    32.3
                                                     2.87D-06  1.01D-05
 Grid integrated density:      41.000008711938
 Requested integration accuracy:   0.10E-06
 d= 0,ls=0.5,diis    56   -196.1780812472 -2.57D-05  4.45D-04  2.36D-05    32.9
                                                     1.36D-05  6.93D-06
 Grid integrated density:      41.000008719288
 Requested integration accuracy:   0.10E-06
 d= 0,ls=0.5,diis    57   -196.1781104176 -2.92D-05  4.56D-04  1.86D-05    33.7
                                                     8.67D-06  3.04D-06
 Grid integrated density:      41.000008730757
 Requested integration accuracy:   0.10E-06
 d= 0,ls=0.5,diis    58   -196.1781389935 -2.86D-05  4.66D-04  1.63D-05    34.3
                                                     9.14D-06  1.21D-06
 Grid integrated density:      41.000008740172
 Requested integration accuracy:   0.10E-06
 d= 0,ls=0.5,diis    59   -196.1781686492 -2.97D-05  4.80D-04  1.49D-05    34.8
                                                     1.43D-05  2.14D-07
 Grid integrated density:      41.000008747310
 Requested integration accuracy:   0.10E-06
 d= 0,ls=0.5,diis    60   -196.1781992822 -3.06D-05  4.94D-04  1.51D-05    35.4
                                                     1.01D-05  6.73D-07
 Grid integrated density:      41.000008755632
 Requested integration accuracy:   0.10E-06
 d= 0,ls=0.5,diis    61   -196.1782301174 -3.08D-05  5.11D-04  1.76D-05    36.0
                                                     9.89D-06  2.90D-06
 Grid integrated density:      41.000008764569
 Requested integration accuracy:   0.10E-06
 d= 0,ls=0.5,diis    62   -196.1782620637 -3.19D-05  5.21D-04  2.18D-05    36.6
                                                     3.88D-06  6.49D-06
 Grid integrated density:      41.000008777584
 Requested integration accuracy:   0.10E-06
 d= 0,ls=0.5,diis    63   -196.1782977049 -3.56D-05  5.23D-04  2.53D-05    37.2
                                                     2.34D-06  8.73D-06
 Grid integrated density:      41.000008788164
 Requested integration accuracy:   0.10E-06
 d= 0,ls=0.5,diis    64   -196.1783357125 -3.80D-05  5.29D-04  3.00D-05    37.7
                                                     3.59D-06  1.20D-05
 Grid integrated density:      41.000008796566
 Requested integration accuracy:   0.10E-06
 d= 0,ls=0.5,diis    65   -196.1783762759 -4.06D-05  5.39D-04  3.62D-05    38.6
                                                     3.34D-06  1.68D-05
 Grid integrated density:      41.000008801817
 Requested integration accuracy:   0.10E-06
 d= 0,ls=0.5,diis    66   -196.1784188435 -4.26D-05  5.53D-04  4.50D-05    39.1
                                                     4.03D-06  2.41D-05
 Grid integrated density:      41.000008806439
 Requested integration accuracy:   0.10E-06
 d= 0,ls=0.5,diis    67   -196.1784638725 -4.50D-05  5.74D-04  5.65D-05    39.7
                                                     5.71D-06  3.39D-05
 Grid integrated density:      41.000008810600
 Requested integration accuracy:   0.10E-06
 d= 0,ls=0.5,diis    68   -196.1785122981 -4.84D-05  5.97D-04  6.99D-05    40.3
                                                     3.14D-06  4.51D-05
 Grid integrated density:      41.000008813948
 Requested integration accuracy:   0.10E-06
 d= 0,ls=0.5,diis    69   -196.1785656788 -5.34D-05  6.18D-04  8.50D-05    40.9
                                                     3.35D-06  5.77D-05
 Grid integrated density:      41.000008817089
 Requested integration accuracy:   0.10E-06
 d= 0,ls=0.5,diis    70   -196.1786279431 -6.23D-05  6.42D-04  9.80D-05    41.5
                                                     2.16D-06  6.75D-05
 Grid integrated density:      41.000008817422
 Requested integration accuracy:   0.10E-06
 d= 0,ls=0.5,diis    71   -196.1786939876 -6.60D-05  6.68D-04  1.16D-04    42.0
                                                     2.77D-06  8.24D-05
 Grid integrated density:      41.000008816525
 Requested integration accuracy:   0.10E-06
 d= 0,ls=0.5,diis    72   -196.1787674010 -7.34D-05  6.99D-04  1.34D-04    42.6
                                                     1.14D-05  9.77D-05
 Grid integrated density:      41.000008817399
 Requested integration accuracy:   0.10E-06
 d= 0,ls=0.5,diis    73   -196.1788577299 -9.03D-05  7.37D-04  1.45D-04    43.2
                                                     1.03D-05  1.02D-04
 Grid integrated density:      41.000008805798
 Requested integration accuracy:   0.10E-06
 d= 0,ls=0.5,diis    74   -196.1789350787 -7.73D-05  7.87D-04  1.83D-04    43.7
                                                     2.05D-05  1.41D-04
 Grid integrated density:      41.000008789599
 Requested integration accuracy:   0.10E-06
 d= 0,ls=0.5,diis    75   -196.1789985516 -6.35D-05  8.31D-04  2.50D-04    44.3
                                                     5.66D-06  2.12D-04
 Grid integrated density:      41.000008777808
 Requested integration accuracy:   0.10E-06
 d= 0,ls=0.5,diis    76   -196.1790906188 -9.21D-05  8.83D-04  2.93D-04    44.9
                                                     6.71D-06  2.54D-04
 Grid integrated density:      41.000008764701
 Requested integration accuracy:   0.10E-06
 d= 0,ls=0.5,diis    77   -196.1791889367 -9.83D-05  9.32D-04  3.41D-04    45.4
                                                     1.07D-05  3.01D-04
 Grid integrated density:      41.000008753794
 Requested integration accuracy:   0.10E-06
 d= 0,ls=0.5,diis    78   -196.1793161724 -1.27D-04  9.95D-04  3.73D-04    46.0
                                                     1.53D-05  3.28D-04
 Grid integrated density:      41.000008726406
 Requested integration accuracy:   0.10E-06
 d= 0,ls=0.5,diis    79   -196.1793986593 -8.25D-05  1.06D-03  4.77D-04    46.6
                                                     8.02D-06  4.38D-04
 Grid integrated density:      41.000008698216
 Requested integration accuracy:   0.10E-06
 d= 0,ls=0.5,diis    80   -196.1794973453 -9.87D-05  1.13D-03  5.78D-04    47.2
                                                     1.20D-05  5.44D-04
 Grid integrated density:      41.000008672982
 Requested integration accuracy:   0.10E-06
 d= 0,ls=0.5,diis    81   -196.1796378464 -1.41D-04  1.21D-03  6.51D-04    47.8
                                                     1.43D-05  6.14D-04
 Grid integrated density:      41.000008646201
 Requested integration accuracy:   0.10E-06
 d= 0,ls=0.5,diis    82   -196.1797776536 -1.40D-04  1.30D-03  7.44D-04    48.3
                                                     3.40D-05  7.08D-04
 Grid integrated density:      41.000008619615
 Requested integration accuracy:   0.10E-06
 d= 0,ls=0.5,diis    83   -196.1799929150 -2.15D-04  1.37D-03  7.69D-04    48.9
                                                     2.89D-05  7.22D-04
 Grid integrated density:      41.000008591135
 Requested integration accuracy:   0.10E-06
 d= 0,ls=0.5,diis    84   -196.1801851732 -1.92D-04  1.48D-03  8.43D-04    49.5
                                                     2.57D-05  7.95D-04
 Grid integrated density:      41.000008528564
 Requested integration accuracy:   0.10E-06
 d= 0,ls=0.5,diis    85   -196.1802324908 -4.73D-05  1.57D-03  1.12D-03    50.1
                                                     9.46D-06  1.10D-03
 Grid integrated density:      41.000008472724
 Requested integration accuracy:   0.10E-06
 d= 0,ls=0.5,diis    86   -196.1803256261 -9.31D-05  1.66D-03  1.35D-03    50.7
                                                     1.28D-05  1.35D-03
 Grid integrated density:      41.000008407780
 Requested integration accuracy:   0.10E-06
 d= 0,ls=0.5,diis    87   -196.1803825988 -5.70D-05  1.77D-03  1.64D-03    51.2
                                                     4.92D-05  1.68D-03
 Grid integrated density:      41.000008362996
 Requested integration accuracy:   0.10E-06
 d= 0,ls=0.5,diis    88   -196.1806647527 -2.82D-04  1.80D-03  1.67D-03    51.9
                                                     4.95D-05  1.72D-03
 Grid integrated density:      41.000008318516
 Requested integration accuracy:   0.10E-06
 d= 0,ls=0.5,diis    89   -196.1809604467 -2.96D-04  1.94D-03  1.69D-03    52.5
                                                     8.36D-05  1.73D-03
 Grid integrated density:      41.000008288323
 Requested integration accuracy:   0.10E-06
 d= 0,ls=0.5,diis    90   -196.1813750375 -4.15D-04  1.96D-03  1.58D-03    53.0
                                                     1.35D-04  1.60D-03
 Grid integrated density:      41.000008273745
 Requested integration accuracy:   0.10E-06
 d= 0,ls=0.5,diis    91   -196.1820214389 -6.46D-04  2.01D-03  1.16D-03    53.6
                                                     1.06D-04  1.13D-03
 Grid integrated density:      41.000008245309
 Requested integration accuracy:   0.10E-06
 d= 0,ls=0.5,diis    92   -196.1825356159 -5.14D-04  2.02D-03  9.13D-04    54.1
                                                     9.63D-05  8.58D-04
 Grid integrated density:      41.000008218237
 Requested integration accuracy:   0.10E-06
 d= 0,ls=0.5,diis    93   -196.1830021814 -4.67D-04  2.02D-03  7.25D-04    54.7
                                                     5.95D-05  6.52D-04
 Grid integrated density:      41.000008149226
 Requested integration accuracy:   0.10E-06
 d= 0,ls=0.5,diis    94   -196.1833374279 -3.35D-04  2.05D-03  7.06D-04    55.3
                                                     7.80D-05  6.36D-04
 Grid integrated density:      41.000008103551
 Requested integration accuracy:   0.10E-06
 d= 0,ls=0.5,diis    95   -196.1837393868 -4.02D-04  2.32D-03  5.80D-04    55.9
                                                     2.19D-04  4.96D-04
 Grid integrated density:      41.000008147850
 Requested integration accuracy:   0.10E-06
 d= 0,ls=0.5,diis    96   -196.1843450537 -6.06D-04  2.22D-03  1.88D-04    56.5
                                                     1.56D-04  5.51D-05
 Grid integrated density:      41.000008148057
 Requested integration accuracy:   0.10E-06
 d= 0,ls=0.5,diis    97   -196.1846736518 -3.29D-04  2.09D-03  1.55D-04    57.1
                                                     1.04D-04  1.41D-05
 Grid integrated density:      41.000008111297
 Requested integration accuracy:   0.10E-06
 d= 0,ls=0.5,diis    98   -196.1849191981 -2.46D-04  2.04D-03  1.95D-04    57.7
                                                     8.25D-05  5.28D-05
 Grid integrated density:      41.000008062123
 Requested integration accuracy:   0.10E-06
 d= 0,ls=0.5,diis    99   -196.1851282820 -2.09D-04  1.95D-03  2.66D-04    58.3
                                                     7.09D-05  1.23D-04
 Grid integrated density:      41.000008009298
 Requested integration accuracy:   0.10E-06
 d= 0,ls=0.5,diis   100   -196.1853125254 -1.84D-04  1.92D-03  3.45D-04    58.8
                                                     6.33D-05  2.00D-04
 Grid integrated density:      41.000007956277
 Requested integration accuracy:   0.10E-06
 d= 0,ls=0.5,diis   101   -196.1854763593 -1.64D-04  1.81D-03  4.35D-04    59.4
                                                     3.60D-05  2.92D-04
 Grid integrated density:      41.000007875009
 Requested integration accuracy:   0.10E-06
 d= 0,ls=0.5,diis   102   -196.1856815622 -2.05D-04  1.78D-03  4.34D-04    60.0
                                                     6.27D-05  2.93D-04
 Grid integrated density:      41.000007829373
 Requested integration accuracy:   0.10E-06
 d= 0,ls=0.5,diis   103   -196.1858098686 -1.28D-04  1.57D-03  5.41D-04    60.5
                                                     1.02D-04  4.06D-04
 Grid integrated density:      41.000007662067
 Requested integration accuracy:   0.10E-06
 d= 0,ls=0.5,diis   104   -196.1862068045 -3.97D-04  1.57D-03  2.05D-04    61.1
                                                     3.78D-05  7.95D-05
 Grid integrated density:      41.000007579402
 Requested integration accuracy:   0.10E-06
 d= 0,ls=0.5,diis   105   -196.1864111136 -2.04D-04  1.58D-03  1.75D-04    61.7
                                                     6.29D-05  6.49D-05
 Grid integrated density:      41.000007528139
 Requested integration accuracy:   0.10E-06
 d= 0,ls=0.5,diis   106   -196.1865535488 -1.42D-04  1.50D-03  2.24D-04    62.3
                                                     2.64D-05  1.25D-04
 Grid integrated density:      41.000007467601
 Requested integration accuracy:   0.10E-06
 d= 0,ls=0.5,diis   107   -196.1867248802 -1.71D-04  1.45D-03  2.08D-04    63.0
                                                     3.37D-05  1.16D-04
 Grid integrated density:      41.000007413672
 Requested integration accuracy:   0.10E-06
 d= 0,ls=0.5,diis   108   -196.1868722240 -1.47D-04  1.44D-03  2.09D-04    63.5
                                                     1.00D-04  1.23D-04
 Grid integrated density:      41.000007416299
 Requested integration accuracy:   0.10E-06
 d= 0,ls=0.5,diis   109   -196.1868867433 -1.45D-05  1.33D-03  3.92D-04    64.1
                                                     7.01D-05  3.12D-04
 Grid integrated density:      41.000007398028
 Requested integration accuracy:   0.10E-06
 d= 0,ls=0.5,diis   110   -196.1869198151 -3.31D-05  1.29D-03  5.07D-04    64.7
                                                     4.43D-05  4.26D-04
 Grid integrated density:      41.000007362999
 Requested integration accuracy:   0.10E-06
 d= 0,ls=0.5,diis   111   -196.1869729959 -5.32D-05  1.22D-03  5.81D-04    65.3
                                                     2.51D-05  5.04D-04
 Grid integrated density:      41.000007316661
 Requested integration accuracy:   0.10E-06
 d= 0,ls=0.5,diis   112   -196.1870619241 -8.89D-05  1.16D-03  5.91D-04    65.9
                                                     1.84D-05  5.16D-04
 Grid integrated density:      41.000007266382
 Requested integration accuracy:   0.10E-06
 d= 0,ls=0.5,diis   113   -196.1871557811 -9.39D-05  1.10D-03  5.83D-04    66.4
                                                     7.54D-05  5.09D-04
 Grid integrated density:      41.000007148840
 Requested integration accuracy:   0.10E-06
 d= 0,ls=0.5,diis   114   -196.1874423805 -2.87D-04  1.04D-03  2.83D-04    67.0
                                                     2.95D-05  2.05D-04
 Grid integrated density:      41.000007120726
 Requested integration accuracy:   0.10E-06
 d= 0,ls=0.5,diis   115   -196.1875037807 -6.14D-05  1.02D-03  3.22D-04    67.6
                                                     4.78D-05  2.52D-04
 Grid integrated density:      41.000007107436
 Requested integration accuracy:   0.10E-06
 d= 0,ls=0.5,diis   116   -196.1875123785 -8.60D-06  9.61D-04  4.27D-04    68.2
                                                     2.41D-05  3.61D-04
 Grid integrated density:      41.000007054147
 Requested integration accuracy:   0.10E-06
 d= 0,ls=0.5,diis   117   -196.1876475839 -1.35D-04  9.14D-04  3.31D-04    68.8
                                                     9.80D-06  2.64D-04
 Grid integrated density:      41.000007005348
 Requested integration accuracy:   0.10E-06
 d= 0,ls=0.5,diis   118   -196.1877421128 -9.45D-05  8.70D-04  2.90D-04    69.4
                                                     7.23D-06  2.27D-04
 Grid integrated density:      41.000006963902
 Requested integration accuracy:   0.10E-06
 d= 0,ls=0.5,diis   119   -196.1878290722 -8.70D-05  8.25D-04  2.53D-04    70.0
                                                     1.32D-05  1.92D-04
 Grid integrated density:      41.000006930532
 Requested integration accuracy:   0.10E-06
 d= 0,ls=0.5,diis   120   -196.1879023115 -7.32D-05  7.71D-04  2.26D-04    70.6
                                                     2.71D-05  1.67D-04
 Grid integrated density:      41.000006912157
 Requested integration accuracy:   0.10E-06
 d= 0,ls=0.5,diis   121   -196.1879378089 -3.55D-05  7.29D-04  2.49D-04    71.1
                                                     1.80D-05  1.89D-04
 Grid integrated density:      41.000006889317
 Requested integration accuracy:   0.10E-06
 d= 0,ls=0.5,diis   122   -196.1879816366 -4.38D-05  7.03D-04  2.50D-04    71.7
                                                     1.12D-05  1.89D-04
 Grid integrated density:      41.000006864700
 Requested integration accuracy:   0.10E-06
 d= 0,ls=0.5,diis   123   -196.1880268395 -4.52D-05  6.72D-04  2.45D-04    72.3
                                                     1.77D-05  1.86D-04
 Grid integrated density:      41.000006846538
 Requested integration accuracy:   0.10E-06
 d= 0,ls=0.5,diis   124   -196.1880584116 -3.16D-05  6.46D-04  2.54D-04    72.9
                                                     7.76D-06  1.96D-04
 Grid integrated density:      41.000006820903
 Requested integration accuracy:   0.10E-06
 d= 0,ls=0.5,diis   125   -196.1881053885 -4.70D-05  6.19D-04  2.35D-04    73.5
                                                     3.77D-06  1.80D-04
 Grid integrated density:      41.000006794045
 Requested integration accuracy:   0.10E-06
 d= 0,ls=0.5,diis   126   -196.1881530422 -4.77D-05  5.91D-04  2.12D-04    74.0
                                                     1.84D-05  1.60D-04
 Grid integrated density:      41.000006779296
 Requested integration accuracy:   0.10E-06
 d= 0,ls=0.5,diis   127   -196.1881728694 -1.98D-05  5.59D-04  2.26D-04    74.6
                                                     1.18D-05  1.78D-04
 Grid integrated density:      41.000006760603
 Requested integration accuracy:   0.10E-06
 d= 0,ls=0.5,diis   128   -196.1882001937 -2.73D-05  5.37D-04  2.24D-04    75.1
                                                     1.17D-05  1.80D-04
 Grid integrated density:      41.000006745718
 Requested integration accuracy:   0.10E-06
 d= 0,ls=0.5,diis   129   -196.1882242771 -2.41D-05  5.14D-04  2.23D-04    75.7
                                                     6.99D-06  1.82D-04
 Grid integrated density:      41.000006727849
 Requested integration accuracy:   0.10E-06
 d= 0,ls=0.5,diis   130   -196.1882525454 -2.83D-05  4.91D-04  2.14D-04    76.3
                                                     3.28D-06  1.76D-04
 Grid integrated density:      41.000006707231
 Requested integration accuracy:   0.10E-06
 d= 0,ls=0.5,diis   131   -196.1882857211 -3.32D-05  4.69D-04  1.95D-04    76.9
                                                     7.58D-06  1.60D-04
 Grid integrated density:      41.000006692096
 Requested integration accuracy:   0.10E-06
 d= 0,ls=0.5,diis   132   -196.1883086666 -2.29D-05  4.45D-04  1.91D-04    77.5
                                                     9.02D-06  1.57D-04
 Grid integrated density:      41.000006679716
 Requested integration accuracy:   0.10E-06
 d= 0,ls=0.5,diis   133   -196.1883261825 -1.75D-05  4.25D-04  1.91D-04    78.0
                                                     1.37D-05  1.58D-04
 Grid integrated density:      41.000006671490
 Requested integration accuracy:   0.10E-06
 d= 0,ls=0.5,diis   134   -196.1883333510 -7.17D-06  4.05D-04  2.04D-04    78.6
                                                     1.32D-05  1.71D-04
 Grid integrated density:      41.000006663120
 Requested integration accuracy:   0.10E-06
 d= 0,ls=0.5,diis   135   -196.1883403959 -7.04D-06  3.90D-04  2.13D-04    79.2
                                                     7.59D-06  1.81D-04
 Grid integrated density:      41.000006647326
 Requested integration accuracy:   0.10E-06
 d= 0,ls=0.5,diis   136   -196.1883578603 -1.75D-05  3.72D-04  2.05D-04    79.8
                                                     8.33D-06  1.73D-04
 Grid integrated density:      41.000006628772
 Requested integration accuracy:   0.10E-06
 d= 0,ls=0.5,diis   137   -196.1883890766 -3.12D-05  3.61D-04  1.78D-04    80.3
                                                     8.03D-06  1.48D-04
 Grid integrated density:      41.000006609119
 Requested integration accuracy:   0.10E-06
 d= 0,ls=0.5,diis   138   -196.1884186942 -2.96D-05  3.48D-04  1.53D-04    80.9
                                                     4.56D-06  1.24D-04
 Grid integrated density:      41.000006593543
 Requested integration accuracy:   0.10E-06
 d= 0,ls=0.5,diis   139   -196.1884427685 -2.41D-05  3.21D-04  1.35D-04    81.5
                                                     7.64D-06  1.08D-04
 Grid integrated density:      41.000006583845
 Requested integration accuracy:   0.10E-06
 d= 0,ls=0.5,diis   140   -196.1884548342 -1.21D-05  3.08D-04  1.32D-04    82.1
                                                     5.19D-06  1.06D-04
 Grid integrated density:      41.000006573158
 Requested integration accuracy:   0.10E-06
 d= 0,ls=0.5,diis   141   -196.1884695588 -1.47D-05  2.96D-04  1.24D-04    82.6
                                                     3.16D-06  9.84D-05
 Grid integrated density:      41.000006562678
 Requested integration accuracy:   0.10E-06
 d= 0,ls=0.5,diis   142   -196.1884836915 -1.41D-05  2.85D-04  1.16D-04    83.2
                                                     3.53D-06  9.14D-05
 Grid integrated density:      41.000006552033
 Requested integration accuracy:   0.10E-06
 d= 0,ls=0.5,diis   143   -196.1884988687 -1.52D-05  2.68D-04  1.06D-04    83.8
                                                     4.11D-06  8.36D-05
 Grid integrated density:      41.000006544695
 Requested integration accuracy:   0.10E-06
 d= 0,ls=0.5,diis   144   -196.1885100058 -1.11D-05  2.53D-04  1.01D-04    84.4
                                                     5.84D-06  7.99D-05
 Grid integrated density:      41.000006537053
 Requested integration accuracy:   0.10E-06
 d= 0,ls=0.5,diis   145   -196.1885208206 -1.08D-05  2.38D-04  9.51D-05    84.9
                                                     5.51D-06  7.48D-05
 Grid integrated density:      41.000006530249
 Requested integration accuracy:   0.10E-06
 d= 0,ls=0.5,diis   146   -196.1885288118 -7.99D-06  2.27D-04  9.24D-05    85.5
                                                     3.70D-06  7.28D-05
 Grid integrated density:      41.000006523676
 Requested integration accuracy:   0.10E-06
 d= 0,ls=0.5,diis   147   -196.1885378791 -9.07D-06  2.25D-04  8.80D-05    86.0
                                                     4.26D-06  6.93D-05
 Grid integrated density:      41.000006513675
 Requested integration accuracy:   0.10E-06
 d= 0,ls=0.5,diis   148   -196.1885511561 -1.33D-05  2.04D-04  7.72D-05    86.6
                                                     1.20D-05  5.91D-05
 Grid integrated density:      41.000006513320
 Requested integration accuracy:   0.10E-06
 d= 0,ls=0.5,diis   149   -196.1885511485  7.57D-09  2.01D-04  8.44D-05    87.2
                                                     5.62D-06  6.73D-05
 Grid integrated density:      41.000006503130
 Requested integration accuracy:   0.10E-06
 d= 0,ls=0.5,diis   150   -196.1885613181 -1.02D-05  1.97D-04  7.60D-05    87.8
                                                     3.37D-06  6.01D-05
 Grid integrated density:      41.000006497346
 Requested integration accuracy:   0.10E-06
 d= 0,ls=0.5,diis   151   -196.1885706132 -9.30D-06  1.92D-04  6.96D-05    88.4
                                                     5.65D-06  5.48D-05
 Grid integrated density:      41.000006487466
 Requested integration accuracy:   0.10E-06
 d= 0,ls=0.5,diis   152   -196.1885805055 -9.89D-06  1.85D-04  6.11D-05    88.9
                                                     3.92D-06  4.67D-05
 Grid integrated density:      41.000006478207
 Requested integration accuracy:   0.10E-06
 d= 0,ls=0.5,diis   153   -196.1885897248 -9.22D-06  1.79D-04  5.38D-05    89.5
                                                     2.53D-06  3.99D-05
 Grid integrated density:      41.000006471550
 Requested integration accuracy:   0.10E-06
 d= 0,ls=0.5,diis   154   -196.1885974082 -7.68D-06  1.68D-04  4.85D-05    90.0
                                                     3.42D-06  3.57D-05
 Grid integrated density:      41.000006466626
 Requested integration accuracy:   0.10E-06
 d= 0,ls=0.5,diis   155   -196.1886039849 -6.58D-06  1.68D-04  4.50D-05    90.6
                                                     5.49D-06  3.27D-05
 Grid integrated density:      41.000006458013
 Requested integration accuracy:   0.10E-06
 d= 0,ls=0.5,diis   156   -196.1886129343 -8.95D-06  1.68D-04  3.68D-05    91.1
                                                     4.09D-06  2.56D-05
 Grid integrated density:      41.000006450691
 Requested integration accuracy:   0.10E-06
 d= 0,ls=0.5,diis   157   -196.1886210011 -8.07D-06  1.73D-04  3.02D-05    91.7
                                                     4.40D-06  2.02D-05
 Grid integrated density:      41.000006442143
 Requested integration accuracy:   0.10E-06
 d= 0,ls=0.5,diis   158   -196.1886293119 -8.31D-06  1.84D-04  2.31D-05    92.2
                                                     7.76D-06  1.46D-05
 Grid integrated density:      41.000006433070
 Requested integration accuracy:   0.10E-06
 d= 0,ls=0.5,diis   159   -196.1886382752 -8.96D-06  1.84D-04  1.52D-05    92.7
                                                     5.21D-06  8.50D-06
 Grid integrated density:      41.000006426010
 Requested integration accuracy:   0.10E-06
 d= 0,ls=0.5,diis   160   -196.1886453297 -7.05D-06  1.61D-04  1.02D-05    93.3
                                                     4.48D-06  4.90D-06
 Grid integrated density:      41.000006425033
 Requested integration accuracy:   0.10E-06
 d= 0,ls=0.5,diis   161   -196.1886492092 -3.88D-06  1.36D-04  9.15D-06    93.8
                                                     9.32D-06  4.45D-06
 Grid integrated density:      41.000006429257
 Requested integration accuracy:   0.10E-06
 d= 0,ls=0.5,diis   162   -196.1886506211 -1.41D-06  1.24D-04  1.10D-05    94.4
                                                     9.07D-06  6.26D-06
 Grid integrated density:      41.000006431772
 Requested integration accuracy:   0.10E-06
 d= 0,ls=0.5,diis   163   -196.1886516793 -1.06D-06  1.08D-04  1.25D-05    95.0
                                                     1.01D-05  7.76D-06
 Grid integrated density:      41.000006436146
 Requested integration accuracy:   0.10E-06
 d= 0,ls=0.5,diis   164   -196.1886514869  1.92D-07  1.03D-04  1.52D-05    95.6
                                                     6.12D-06  1.02D-05
 Grid integrated density:      41.000006437122
 Requested integration accuracy:   0.10E-06
 d= 0,ls=0.5,diis   165   -196.1886523276 -8.41D-07  9.82D-05  1.60D-05    96.1
                                                     3.79D-06  1.10D-05
 Grid integrated density:      41.000006436436
 Requested integration accuracy:   0.10E-06
 d= 0,ls=0.5,diis   166   -196.1886535898 -1.26D-06  9.85D-05  1.61D-05    96.6
                                                     2.31D-06  1.12D-05
 Grid integrated density:      41.000006434107
 Requested integration accuracy:   0.10E-06
 d= 0,ls=0.5,diis   167   -196.1886559576 -2.37D-06  9.64D-05  1.45D-05    97.2
                                                     1.31D-06  9.92D-06
 Grid integrated density:      41.000006431627
 Requested integration accuracy:   0.10E-06
 d= 0,ls=0.5,diis   168   -196.1886580694 -2.11D-06  9.72D-05  1.32D-05    97.8
                                                     1.99D-06  8.96D-06
 Grid integrated density:      41.000006427799
 Requested integration accuracy:   0.10E-06
 d= 0,ls=0.5,diis   169   -196.1886607820 -2.71D-06  9.71D-05  1.11D-05    98.3
                                                     2.17D-06  7.31D-06
 Grid integrated density:      41.000006425886
 Requested integration accuracy:   0.10E-06
 d= 0,ls=0.5,diis   170   -196.1886627091 -1.93D-06  9.58D-05  1.00D-05    98.8
                                                     1.32D-06  6.69D-06
 Grid integrated density:      41.000006423783
 Requested integration accuracy:   0.10E-06
 d= 0,ls=0.5,diis   171   -196.1886645987 -1.89D-06  9.04D-05  8.97D-06    99.4
                                                     2.51D-06  5.99D-06
 Grid integrated density:      41.000006422770
 Requested integration accuracy:   0.10E-06
 d= 0,ls=0.5,diis   172   -196.1886658990 -1.30D-06  8.92D-05  8.60D-06    99.9
                                                     1.03D-06  5.84D-06
 Grid integrated density:      41.000006420595
 Requested integration accuracy:   0.10E-06
 d= 0,ls=0.5,diis   173   -196.1886675245 -1.63D-06  8.06D-05  7.67D-06   100.5
                                                     3.95D-06  5.21D-06
 Grid integrated density:      41.000006420814
 Requested integration accuracy:   0.10E-06
 d= 0,ls=0.5,diis   174   -196.1886680321 -5.08D-07  7.48D-05  8.14D-06   101.0
                                                     4.60D-06  5.78D-06
 Grid integrated density:      41.000006421862
 Requested integration accuracy:   0.10E-06
 d= 0,ls=0.5,diis   175   -196.1886680885 -5.64D-08  7.60D-05  9.08D-06   101.6
                                                     1.80D-06  6.74D-06
 Grid integrated density:      41.000006418667
 Requested integration accuracy:   0.10E-06
 d= 0,ls=0.5,diis   176   -196.1886697058 -1.62D-06  7.23D-05  7.77D-06   102.2
                                                     1.10D-06  5.64D-06
 Grid integrated density:      41.000006417382
 Requested integration accuracy:   0.10E-06
 d= 0,ls=0.5,diis   177   -196.1886708145 -1.11D-06  7.00D-05  7.23D-06   102.7
                                                     1.48D-06  5.21D-06
 Grid integrated density:      41.000006415525
 Requested integration accuracy:   0.10E-06
 d= 0,ls=0.5,diis   178   -196.1886717755 -9.61D-07  6.56D-05  6.84D-06   103.2
                                                     1.87D-06  4.98D-06
 Grid integrated density:      41.000006413797
 Requested integration accuracy:   0.10E-06
 d= 0,ls=0.5,diis   179   -196.1886725791 -8.04D-07  6.39D-05  6.53D-06   103.7
                                                     1.04D-06  4.75D-06
 Grid integrated density:      41.000006411895
 Requested integration accuracy:   0.10E-06
 d= 0,ls=0.5,diis   180   -196.1886734714 -8.92D-07  5.79D-05  6.04D-06   104.2
                                                     3.10D-06  4.36D-06
 Grid integrated density:      41.000006412297
 Requested integration accuracy:   0.10E-06
 d= 0,ls=0.5,diis   181   -196.1886736215 -1.50D-07  5.47D-05  6.64D-06   104.8
                                                     2.89D-06  5.00D-06
 Grid integrated density:      41.000006412260
 Requested integration accuracy:   0.10E-06
 d= 0,ls=0.5,diis   182   -196.1886737558 -1.34D-07  5.54D-05  7.10D-06   105.4
                                                     1.29D-06  5.40D-06
 Grid integrated density:      41.000006409848
 Requested integration accuracy:   0.10E-06
 d= 0,ls=0.5,diis   183   -196.1886746637 -9.08D-07  5.33D-05  6.41D-06   105.9
                                                     7.51D-07  4.75D-06
 Grid integrated density:      41.000006407944
 Requested integration accuracy:   0.10E-06
 d= 0,ls=0.5,diis   184   -196.1886753926 -7.29D-07  5.26D-05  5.93D-06   106.5
                                                     9.65D-07  4.36D-06
 Grid integrated density:      41.000006406065
 Requested integration accuracy:   0.10E-06
 d= 0,ls=0.5,diis   185   -196.1886762254 -8.33D-07  5.34D-05  5.33D-06   107.0
                                                     1.83D-06  3.85D-06
 Grid integrated density:      41.000006403334
 Requested integration accuracy:   0.10E-06
 d= 0,ls=0.5,diis   186   -196.1886772407 -1.02D-06  5.26D-05  4.46D-06   107.5
                                                     9.28D-07  3.07D-06
 Grid integrated density:      41.000006401344
 Requested integration accuracy:   0.10E-06
 d= 0,ls=0.5,diis   187   -196.1886780550 -8.14D-07  4.97D-05  3.86D-06   108.1
                                                     8.00D-07  2.59D-06
 Grid integrated density:      41.000006399939
 Requested integration accuracy:   0.10E-06
 d= 0,ls=0.5,diis   188   -196.1886786947 -6.40D-07  4.52D-05  3.44D-06   108.6
                                                     1.72D-06  2.27D-06
 Grid integrated density:      41.000006399559
 Requested integration accuracy:   0.10E-06
 d= 0,ls=0.5,diis   189   -196.1886789979 -3.03D-07  4.29D-05  3.46D-06   109.2
                                                     1.02D-06  2.34D-06
 Grid integrated density:      41.000006398730
 Requested integration accuracy:   0.10E-06
 d= 0,ls=0.5,diis   190   -196.1886794211 -4.23D-07  4.08D-05  3.24D-06   109.8
                                                     9.50D-07  2.19D-06
 Grid integrated density:      41.000006398325
 Requested integration accuracy:   0.10E-06
 d= 0,ls=0.5,diis   191   -196.1886797716 -3.51D-07  3.42D-05  3.13D-06   110.3
                                                     4.07D-06  2.13D-06
 Grid integrated density:      41.000006400072
 Requested integration accuracy:   0.10E-06
 d= 0,ls=0.5,diis   192   -196.1886794578  3.14D-07  3.43D-05  3.86D-06   110.9
                                                     1.02D-06  2.77D-06
 Grid integrated density:      41.000006399330
 Requested integration accuracy:   0.10E-06
 d= 0,ls=0.5,diis   193   -196.1886798039 -3.46D-07  3.35D-05  3.59D-06   111.5
                                                     4.96D-07  2.56D-06
 Grid integrated density:      41.000006398453
 Requested integration accuracy:   0.10E-06
 d= 0,ls=0.5,diis   194   -196.1886801636 -3.60D-07  3.36D-05  3.32D-06   112.0
                                                     4.42D-07  2.36D-06
 Grid integrated density:      41.000006397378
 Requested integration accuracy:   0.10E-06
 d= 0,ls=0.5,diis   195   -196.1886805735 -4.10D-07  3.31D-05  2.99D-06   112.6
                                                     5.10D-07  2.10D-06
 Grid integrated density:      41.000006396614
 Requested integration accuracy:   0.10E-06
 d= 0,ls=0.5,diis   196   -196.1886809403 -3.67D-07  3.15D-05  2.73D-06   113.1
                                                     9.87D-07  1.90D-06
 Grid integrated density:      41.000006395905
 Requested integration accuracy:   0.10E-06
 d= 0,ls=0.5,diis   197   -196.1886812312 -2.91D-07  3.23D-05  2.55D-06   113.6
                                                     8.32D-07  1.76D-06
 Grid integrated density:      41.000006395149
 Requested integration accuracy:   0.10E-06
 d= 0,ls=0.5,diis   198   -196.1886815699 -3.39D-07  3.81D-05  2.31D-06   114.1
                                                     2.01D-06  1.59D-06
 Grid integrated density:      41.000006392979
 Requested integration accuracy:   0.10E-06
 d= 0,ls=0.5,diis   199   -196.1886821599 -5.90D-07  3.74D-05  1.73D-06   114.6
                                                     1.11D-06  1.14D-06
 Grid integrated density:      41.000006391661
 Requested integration accuracy:   0.10E-06
 d= 0,ls=0.5,diis   200   -196.1886826028 -4.43D-07  3.88D-05  1.36D-06   115.1
                                                     1.10D-06  8.60D-07
 Grid integrated density:      41.000006390441
 Requested integration accuracy:   0.10E-06
 d= 0,ls=0.5,diis   201   -196.1886830205 -4.18D-07  4.07D-05  1.04D-06   115.6
                                                     1.23D-06  6.22D-07
 Grid integrated density:      41.000006388967
 Requested integration accuracy:   0.10E-06
 d= 0,ls=0.5,diis   202   -196.1886834290 -4.09D-07  3.92D-05  7.26D-07   116.0
                                                     5.94D-07  3.88D-07
 Grid integrated density:      41.000006387917
 Requested integration accuracy:   0.10E-06
 d= 0,ls=0.5,diis   203   -196.1886837430 -3.14D-07  3.19D-05  5.30D-07   116.5
                                                     2.04D-06  2.55D-07
 Grid integrated density:      41.000006388789
 Requested integration accuracy:   0.10E-06
 d= 0,ls=0.5,diis   204   -196.1886838404 -9.74D-08  2.52D-05  6.15D-07   117.0
                                                     3.07D-06  3.46D-07
 Grid integrated density:      41.000006390319
 Requested integration accuracy:   0.10E-06
 d= 0,ls=0.5,diis   205   -196.1886838212  1.92D-08  2.48D-05  7.88D-07   117.5
                                                     1.34D-06  4.96D-07
 Grid integrated density:      41.000006390633
 Requested integration accuracy:   0.10E-06
 d= 0,ls=0.5,diis   206   -196.1886839099 -8.87D-08  2.36D-05  7.94D-07   118.0
                                                     1.12D-06  5.11D-07
 Grid integrated density:      41.000006390416
 Requested integration accuracy:   0.10E-06
 d= 0,ls=0.5,diis   207   -196.1886840042 -9.43D-08  1.97D-05  7.76D-07   118.5
                                                     2.21D-06  5.05D-07
 Grid integrated density:      41.000006391595
 Requested integration accuracy:   0.10E-06
 d= 0,ls=0.5,diis   208   -196.1886839462  5.80D-08  2.13D-05  9.52D-07   119.0
                                                     5.36D-07  6.64D-07
 Grid integrated density:      41.000006390805
 Requested integration accuracy:   0.10E-06
 d= 0,ls=0.5,diis   209   -196.1886840944 -1.48D-07  1.88D-05  8.30D-07   119.5
                                                     8.57D-07  5.64D-07
 Grid integrated density:      41.000006390825
 Requested integration accuracy:   0.10E-06
 d= 0,ls=0.5,diis   210   -196.1886841463 -5.19D-08  2.02D-05  8.42D-07   120.0
                                                     6.17D-07  5.80D-07
 Grid integrated density:      41.000006390193
 Requested integration accuracy:   0.10E-06
 d= 0,ls=0.5,diis   211   -196.1886842877 -1.41D-07  2.12D-05  7.31D-07   120.4
                                                     7.64D-07  4.91D-07
 Grid integrated density:      41.000006389423
 Requested integration accuracy:   0.10E-06
 d= 0,ls=0.5,diis   212   -196.1886844352 -1.47D-07  2.57D-05  6.14D-07   120.9
                                                     1.66D-06  4.02D-07
 Grid integrated density:      41.000006387440
 Requested integration accuracy:   0.10E-06
 d= 0,ls=0.5,diis   213   -196.1886846720 -2.37D-07  2.15D-05  3.83D-07   121.4
                                                     7.59D-07  2.19D-07
 Grid integrated density:      41.000006387385
 Requested integration accuracy:   0.10E-06
 d= 0,ls=0.5,diis   214   -196.1886847400 -6.80D-08  1.72D-05  3.87D-07   121.9
                                                     1.97D-06  2.34D-07
 Grid integrated density:      41.000006388340
 Requested integration accuracy:   0.10E-06
 d= 0,ls=0.5,diis   215   -196.1886847032  3.68D-08  2.17D-05  5.08D-07   122.4
                                                     1.34D-06  3.44D-07
 Grid integrated density:      41.000006386936
 Requested integration accuracy:   0.10E-06
 d= 0,ls=0.5,diis   216   -196.1886848785 -1.75D-07  1.75D-05  3.32D-07   122.8
                                                     8.40D-07  2.00D-07
 Grid integrated density:      41.000006386984
 Requested integration accuracy:   0.10E-06
 d= 0,ls=0.5,diis   217   -196.1886849165 -3.80D-08  1.64D-05  3.46D-07   123.3
                                                     6.56D-07  2.17D-07
 Grid integrated density:      41.000006387126
 Requested integration accuracy:   0.10E-06
 d= 0,ls=0.5,diis   218   -196.1886849559 -3.95D-08  1.48D-05  3.50D-07   123.8
                                                     8.39D-07  2.28D-07
 Grid integrated density:      41.000006387172
 Requested integration accuracy:   0.10E-06
 d= 0,ls=0.5,diis   219   -196.1886849771 -2.12D-08  1.43D-05  3.70D-07   124.3
                                                     5.00D-07  2.49D-07
 Grid integrated density:      41.000006387048
 Requested integration accuracy:   0.10E-06
 d= 0,ls=0.5,diis   220   -196.1886850119 -3.48D-08  1.28D-05  3.65D-07   124.8
                                                     9.45D-07  2.48D-07
 Grid integrated density:      41.000006387365
 Requested integration accuracy:   0.10E-06
 d= 0,ls=0.5,diis   221   -196.1886850078  4.10D-09  1.22D-05  4.09D-07   125.2
                                                     5.87D-07  2.89D-07
 Grid integrated density:      41.000006387387
 Requested integration accuracy:   0.10E-06
 d= 0,ls=0.5,diis   222   -196.1886850210 -1.32D-08  1.26D-05  4.23D-07   125.7
                                                     2.65D-07  3.02D-07
 Grid integrated density:      41.000006386842
 Requested integration accuracy:   0.10E-06
 d= 0,ls=0.5,diis   223   -196.1886850760 -5.50D-08  1.30D-05  3.79D-07   126.2
                                                     3.54D-07  2.65D-07
 Grid integrated density:      41.000006386340
 Requested integration accuracy:   0.10E-06
 d= 0,ls=0.5,diis   224   -196.1886851395 -6.35D-08  1.22D-05  3.26D-07   126.7
                                                     1.75D-07  2.24D-07
 Grid integrated density:      41.000006386143
 Requested integration accuracy:   0.10E-06
 d= 0,ls=0.5,diis   225   -196.1886851774 -3.79D-08  1.17D-05  3.06D-07   127.2
                                                     4.99D-07  2.09D-07
 Grid integrated density:      41.000006386155
 Requested integration accuracy:   0.10E-06
 d= 0,ls=0.5,diis   226   -196.1886852034 -2.60D-08  1.19D-05  3.01D-07   127.6
                                                     2.71D-07  2.08D-07
 Grid integrated density:      41.000006385972
 Requested integration accuracy:   0.10E-06
 d= 0,ls=0.5,diis   227   -196.1886852407 -3.73D-08  1.17D-05  2.78D-07   128.1
                                                     2.47D-07  1.94D-07
 Grid integrated density:      41.000006385630
 Requested integration accuracy:   0.10E-06
 d= 0,ls=0.5,diis   228   -196.1886852833 -4.27D-08  1.06D-05  2.45D-07   128.6
                                                     4.62D-07  1.68D-07
 Grid integrated density:      41.000006385670
 Requested integration accuracy:   0.10E-06
 d= 0,ls=0.5,diis   229   -196.1886852979 -1.45D-08  9.55D-06  2.51D-07   129.1
                                                     5.44D-07  1.75D-07
 Grid integrated density:      41.000006385870
 Requested integration accuracy:   0.10E-06
 d= 0,ls=0.5,diis   230   -196.1886853031 -5.23D-09  1.04D-05  2.65D-07   129.6
                                                     3.65D-07  1.90D-07
 Grid integrated density:      41.000006385436
 Requested integration accuracy:   0.10E-06
 d= 0,ls=0.5,diis   231   -196.1886853489 -4.58D-08  9.82D-06  2.22D-07   130.0
                                                     1.13D-07  1.54D-07
 Grid integrated density:      41.000006385249
 Requested integration accuracy:   0.10E-06
 d= 0,ls=0.5,diis   232   -196.1886853768 -2.80D-08  9.02D-06  2.05D-07   130.5
                                                     4.11D-07  1.41D-07
 Grid integrated density:      41.000006385166
 Requested integration accuracy:   0.10E-06
 d= 0,ls=0.5,diis   233   -196.1886853884 -1.16D-08  8.33D-06  2.07D-07   131.0
                                                     5.13D-07  1.46D-07
 Grid integrated density:      41.000006385379
 Requested integration accuracy:   0.10E-06
 d= 0,ls=0.5,diis   234   -196.1886853913 -2.82D-09  7.58D-06  2.19D-07   131.5
                                                     4.97D-07  1.59D-07
 Grid integrated density:      41.000006385524
 Requested integration accuracy:   0.10E-06
 d= 0,ls=0.5,diis   235   -196.1886853910  2.64D-10  9.10D-06  2.31D-07   131.9
                                                     6.04D-07  1.72D-07
 Grid integrated density:      41.000006384976
 Requested integration accuracy:   0.10E-06
 d= 0,ls=0.5,diis   236   -196.1886854385 -4.74D-08  1.01D-05  1.79D-07   132.4
                                                     7.49D-07  1.25D-07
 Grid integrated density:      41.000006384312
 Requested integration accuracy:   0.10E-06
 d= 0,ls=0.5,diis   237   -196.1886854873 -4.89D-08  8.92D-06  1.32D-07   132.9
                                                     2.78D-07  8.76D-08
 Grid integrated density:      41.000006384032
 Requested integration accuracy:   0.10E-06
 d= 0,ls=0.5,diis   238   -196.1886855113 -2.40D-08  7.91D-06  1.16D-07   133.3
                                                     3.02D-07  7.61D-08
 Grid integrated density:      41.000006384068
 Requested integration accuracy:   0.10E-06
 d= 0,ls=0.5,diis   239   -196.1886855232 -1.19D-08  7.00D-06  1.16D-07   133.8
                                                     4.30D-07  7.75D-08
 Grid integrated density:      41.000006384150
 Requested integration accuracy:   0.10E-06
 d= 0,ls=0.5,diis   240   -196.1886855295 -6.22D-09  6.74D-06  1.21D-07   134.3
                                                     2.83D-07  8.21D-08
 Grid integrated density:      41.000006384131
 Requested integration accuracy:   0.10E-06
 d= 0,ls=0.5,diis   241   -196.1886855387 -9.22D-09  7.23D-06  1.20D-07   134.7
                                                     2.28D-07  8.24D-08
 Grid integrated density:      41.000006383816
 Requested integration accuracy:   0.10E-06
 d= 0,ls=0.5,diis   242   -196.1886855605 -2.18D-08  8.19D-06  1.00D-07   135.2
                                                     3.09D-07  6.60D-08
 Grid integrated density:      41.000006383340
 Requested integration accuracy:   0.10E-06
 d= 0,ls=0.5,diis   243   -196.1886855855 -2.50D-08  9.82D-06  7.78D-08   135.7
                                                     6.70D-07  4.92D-08
 Grid integrated density:      41.000006382814
 Requested integration accuracy:   0.10E-06
 d= 0,ls=0.5,diis   244   -196.1886856173 -3.18D-08  7.67D-06  4.80D-08   136.1
                                                     2.80D-07  2.63D-08
 Grid integrated density:      41.000006382738
 Requested integration accuracy:   0.10E-06
 d= 0,ls=0.5,diis   245   -196.1886856285 -1.12D-08  6.69D-06  4.43D-08   136.6
                                                     3.65D-07  2.44D-08
 Grid integrated density:      41.000006382835
 Requested integration accuracy:   0.10E-06
 d= 0,ls=0.5,diis   246   -196.1886856349 -6.46D-09  6.62D-06  4.63D-08   137.0
                                                     1.99D-07  2.73D-08
 Grid integrated density:      41.000006382801
 Requested integration accuracy:   0.10E-06
 d= 0,ls=0.5,diis   247   -196.1886856440 -9.04D-09  5.94D-06  4.30D-08   137.5
                                                     2.91D-07  2.56D-08
 Grid integrated density:      41.000006382831
 Requested integration accuracy:   0.10E-06
 d= 0,ls=0.5,diis   248   -196.1886856497 -5.75D-09  6.32D-06  4.34D-08   137.9
                                                     1.11D-07  2.67D-08
 Grid integrated density:      41.000006382736
 Requested integration accuracy:   0.10E-06
 d= 0,ls=0.5,diis   249   -196.1886856599 -1.02D-08  6.71D-06  3.71D-08   138.4
                                                     1.35D-07  2.26D-08
 Grid integrated density:      41.000006382545
 Requested integration accuracy:   0.10E-06
 d= 0,ls=0.5,diis   250   -196.1886856718 -1.18D-08  5.89D-06  2.83D-08   138.8
                                                     1.98D-07  1.61D-08
 Grid integrated density:      41.000006382525
 Requested integration accuracy:   0.10E-06
 d= 0,ls=0.5,diis   251   -196.1886856778 -6.01D-09  5.57D-06  2.72D-08   139.3
                                                     1.70D-07  1.57D-08
 Grid integrated density:      41.000006382527
 Requested integration accuracy:   0.10E-06
 d= 0,ls=0.5,diis   252   -196.1886856834 -5.62D-09  5.04D-06  2.60D-08   139.8
                                                     2.58D-07  1.52D-08
 Grid integrated density:      41.000006382569
 Requested integration accuracy:   0.10E-06
 d= 0,ls=0.5,diis   253   -196.1886856870 -3.63D-09  4.46D-06  2.64D-08   140.2
                                                     3.12D-07  1.60D-08
 Grid integrated density:      41.000006382681
 Requested integration accuracy:   0.10E-06
 d= 0,ls=0.5,diis   254   -196.1886856886 -1.59D-09  4.40D-06  2.89D-08   140.7
                                                     1.61D-07  1.84D-08
 Grid integrated density:      41.000006382648
 Requested integration accuracy:   0.10E-06
 d= 0,ls=0.5,diis   255   -196.1886856927 -4.09D-09  4.44D-06  2.69D-08   141.1
                                                     7.08D-08  1.71D-08
 Grid integrated density:      41.000006382576
 Requested integration accuracy:   0.10E-06
 d= 0,ls=0.5,diis   256   -196.1886856978 -5.11D-09  4.20D-06  2.39D-08   141.6
                                                     1.18D-07  1.50D-08
 Grid integrated density:      41.000006382575
 Requested integration accuracy:   0.10E-06
 d= 0,ls=0.5,diis   257   -196.1886857012 -3.34D-09  3.75D-06  2.32D-08   142.0
                                                     2.58D-07  1.48D-08
 Grid integrated density:      41.000006382676
 Requested integration accuracy:   0.10E-06
 d= 0,ls=0.5,diis   258   -196.1886857020 -8.77D-10  3.62D-06  2.56D-08   142.5
                                                     1.76D-07  1.71D-08
 Grid integrated density:      41.000006382704
 Requested integration accuracy:   0.10E-06
 d= 0,ls=0.5,diis   259   -196.1886857037 -1.65D-09  3.47D-06  2.60D-08   142.9
                                                     1.04D-07  1.79D-08
 Grid integrated density:      41.000006382682
 Requested integration accuracy:   0.10E-06
 d= 0,ls=0.5,diis   260   -196.1886857060 -2.31D-09  3.25D-06  2.54D-08   143.4
                                                     1.72D-07  1.76D-08
 Grid integrated density:      41.000006382714
 Requested integration accuracy:   0.10E-06
 d= 0,ls=0.5,diis   261   -196.1886857070 -9.55D-10  3.17D-06  2.65D-08   143.8
                                                     1.70D-07  1.89D-08
 Grid integrated density:      41.000006382716
 Requested integration accuracy:   0.10E-06
 d= 0,ls=0.5,diis   262   -196.1886857078 -8.64D-10  3.02D-06  2.72D-08   144.3
                                                     8.50D-08  1.98D-08
 Grid integrated density:      41.000006382700
 Requested integration accuracy:   0.10E-06
 d= 0,ls=0.5,diis   263   -196.1886857095 -1.72D-09  2.77D-06  2.68D-08   144.7
                                                     3.41D-07  1.96D-08
 Grid integrated density:      41.000006382829
 Requested integration accuracy:   0.10E-06
 d= 0,ls=0.5,diis   264   -196.1886857062  3.37D-09  2.71D-06  3.28D-08   145.2
                                                     1.50D-07  2.51D-08
 Grid integrated density:      41.000006382631
 Requested integration accuracy:   0.10E-06
 d= 0,ls=0.5,diis   265   -196.1886857110 -4.80D-09  3.50D-06  2.66D-08   145.6
                                                     3.62D-07  1.95D-08
 Grid integrated density:      41.000006382366
 Requested integration accuracy:   0.10E-06
 d= 0,ls=0.5,diis   266   -196.1886857185 -7.49D-09  4.28D-06  1.86D-08   146.1
                                                     3.97D-07  1.27D-08
 Grid integrated density:      41.000006382090
 Requested integration accuracy:   0.10E-06
 d= 0,ls=0.5,diis   267   -196.1886857256 -7.10D-09  3.72D-06  1.17D-08   146.6
[...]
              MO Center= -5.3D-01,  1.5D-01, -3.0D-02, r^2= 3.5D+00
   Bfn.  Coefficient  Atom+Function         Bfn.  Coefficient  Atom+Function  
  ----- ------------  ---------------      ----- ------------  ---------------
    50      1.548127   5 C  py               68     -1.549464   7 C  py        
    71     -1.176201   8 H  s                74      1.134408   9 H  s         
    77      0.925068  10 H  s                80     -0.918250  11 H  s         
    95      0.905575  12 C  py               70      0.868518   8 H  s         
    73     -0.848777   9 H  s                76     -0.712403  10 H  s         
 
 Vector   90  Occ=0.000000D+00  E= 2.625627D+00
              MO Center=  1.8D+00, -6.6D-01, -7.1D-01, r^2= 3.3D+00
   Bfn.  Coefficient  Atom+Function         Bfn.  Coefficient  Atom+Function  
  ----- ------------  ---------------      ----- ------------  ---------------
    15      3.022914   1 C  pz               30     -2.754548   2 C  pz        
    28      1.580047   2 C  px               32      1.556833   3 H  s         
    36     -1.310945   4 H  s                54      1.256612   6 H  s         
    35     -1.235164   4 H  s                29     -1.079603   2 C  py        
    31     -1.066951   3 H  s                14      0.895011   1 C  py        
 
 Vector   91  Occ=0.000000D+00  E= 2.738164D+00
              MO Center=  1.1D+00, -6.0D-01, -1.2D+00, r^2= 2.8D+00
   Bfn.  Coefficient  Atom+Function         Bfn.  Coefficient  Atom+Function  
  ----- ------------  ---------------      ----- ------------  ---------------
    21      4.150641   2 C  s                20     -3.541489   2 C  s         
     5     -3.342181   1 C  s                 6      3.086576   1 C  s         
    19      2.630701   2 C  s                 4      2.565483   1 C  s         
    13     -2.532262   1 C  px               51      2.337431   5 C  pz        
    49     -1.715162   5 C  px               60     -1.567832   7 C  s         
 
 Vector   92  Occ=0.000000D+00  E= 2.854518D+00
              MO Center=  1.4D+00, -6.4D-01, -1.0D+00, r^2= 2.4D+00
   Bfn.  Coefficient  Atom+Function         Bfn.  Coefficient  Atom+Function  
  ----- ------------  ---------------      ----- ------------  ---------------
    21     -5.612469   2 C  s                 6      5.140413   1 C  s         
    20      4.002841   2 C  s                 5     -3.845058   1 C  s         
    19     -2.717194   2 C  s                 4      2.549664   1 C  s         
    13      2.053257   1 C  px               28      1.288201   2 C  px        
    30      0.953248   2 C  pz               15      0.911387   1 C  pz        
 
 Vector   93  Occ=0.000000D+00  E= 2.916537D+00
              MO Center= -2.9D-01,  1.7D-01,  3.7D-01, r^2= 3.3D+00
   Bfn.  Coefficient  Atom+Function         Bfn.  Coefficient  Atom+Function  
  ----- ------------  ---------------      ----- ------------  ---------------
    60      5.246758   7 C  s                42      4.235759   5 C  s         
    59     -3.941887   7 C  s                87     -3.328439  12 C  s         
    41     -3.112000   5 C  s                58      2.710293   7 C  s         
    40      2.097505   5 C  s                13      1.917798   1 C  px        
    30      1.890883   2 C  pz               15     -1.638947   1 C  pz        
 
 Vector   94  Occ=0.000000D+00  E= 2.943263D+00
              MO Center= -1.3D+00,  7.0D-01,  1.4D+00, r^2= 2.9D+00
   Bfn.  Coefficient  Atom+Function         Bfn.  Coefficient  Atom+Function  
  ----- ------------  ---------------      ----- ------------  ---------------
    87      6.408665  12 C  s                86     -4.889354  12 C  s         
    85      3.336979  12 C  s                42     -2.203751   5 C  s         
    67      2.082633   7 C  px               69     -1.652438   7 C  pz        
    21     -1.434263   2 C  s                 6      1.287723   1 C  s         
    51     -1.258975   5 C  pz               98     -1.168370  13 H  s         
 
 Vector   95  Occ=0.000000D+00  E= 3.065081D+00
              MO Center= -4.8D-01,  1.1D-01, -1.3D-01, r^2= 3.0D+00
   Bfn.  Coefficient  Atom+Function         Bfn.  Coefficient  Atom+Function  
  ----- ------------  ---------------      ----- ------------  ---------------
    42      9.366006   5 C  s                60     -6.605764   7 C  s         
     6     -4.724971   1 C  s                41     -4.726571   5 C  s         
    59      3.167811   7 C  s                15     -3.023698   1 C  pz        
    40      2.941345   5 C  s                87      2.658627  12 C  s         
    21      2.098643   2 C  s                 5      2.044792   1 C  s         
 
 Vector   96  Occ=0.000000D+00  E= 1.170489D+01
              MO Center=  1.3D+00, -6.1D-01, -1.0D+00, r^2= 1.0D+00
   Bfn.  Coefficient  Atom+Function         Bfn.  Coefficient  Atom+Function  
  ----- ------------  ---------------      ----- ------------  ---------------
    19     -2.395207   2 C  s                18      2.371199   2 C  s         
     4     -2.200687   1 C  s                 3      2.152805   1 C  s         
    20      2.000673   2 C  s                 5      1.847806   1 C  s         
    21     -1.338901   2 C  s                 6     -1.297902   1 C  s         
    17     -1.251242   2 C  s                 2     -1.133155   1 C  s         
 
 Vector   97  Occ=0.000000D+00  E= 1.187465D+01
              MO Center= -1.5D+00,  7.6D-01,  1.5D+00, r^2= 6.6D-01
   Bfn.  Coefficient  Atom+Function         Bfn.  Coefficient  Atom+Function  
  ----- ------------  ---------------      ----- ------------  ---------------
    85     -3.338688  12 C  s                84      3.203108  12 C  s         
    86      2.980214  12 C  s                87     -2.367595  12 C  s         
    83     -1.672783  12 C  s                57      0.667527   7 C  s         
    58     -0.658662   7 C  s                59      0.499632   7 C  s         
    67     -0.473957   7 C  px               51      0.364844   5 C  pz        
 
 Vector   98  Occ=0.000000D+00  E= 1.190810D+01
              MO Center= -3.6D-01,  3.1D-01,  9.0D-01, r^2= 5.1D-01
   Bfn.  Coefficient  Atom+Function         Bfn.  Coefficient  Atom+Function  
  ----- ------------  ---------------      ----- ------------  ---------------
    58     -3.396776   7 C  s                57      3.216919   7 C  s         
    59      3.115838   7 C  s                60     -2.815914   7 C  s         
    56     -1.676724   7 C  s                87      1.165237  12 C  s         
    86     -0.804858  12 C  s                85      0.759453  12 C  s         
    84     -0.680618  12 C  s                51      0.503882   5 C  pz        
 
 Vector   99  Occ=0.000000D+00  E= 1.193931D+01
              MO Center= -3.6D-01, -4.6D-02, -6.2D-01, r^2= 7.0D-01
   Bfn.  Coefficient  Atom+Function         Bfn.  Coefficient  Atom+Function  
  ----- ------------  ---------------      ----- ------------  ---------------
    40     -3.432763   5 C  s                42     -3.283324   5 C  s         
    39      3.219238   5 C  s                41      3.224366   5 C  s         
    38     -1.674197   5 C  s                19      0.763281   2 C  s         
    18     -0.739595   2 C  s                13     -0.716440   1 C  px        
    20     -0.701238   2 C  s                 6      0.638630   1 C  s         
 
 Vector  100  Occ=0.000000D+00  E= 1.206288D+01
              MO Center=  1.2D+00, -5.8D-01, -1.1D+00, r^2= 9.5D-01
   Bfn.  Coefficient  Atom+Function         Bfn.  Coefficient  Atom+Function  
  ----- ------------  ---------------      ----- ------------  ---------------
     6     -2.648742   1 C  s                 4     -2.607821   1 C  s         
     5      2.510313   1 C  s                 3      2.453122   1 C  s         
    21      2.272065   2 C  s                19      2.230130   2 C  s         
    20     -2.137372   2 C  s                18     -2.121086   2 C  s         
    42      1.295498   5 C  s                 2     -1.275671   1 C  s         
 
 Vector  101  Occ=0.000000D+00  E= 6.266115D+01
              MO Center=  1.3D+00, -6.0D-01, -1.0D+00, r^2= 7.7D-01
   Bfn.  Coefficient  Atom+Function         Bfn.  Coefficient  Atom+Function  
  ----- ------------  ---------------      ----- ------------  ---------------
    17      2.133411   2 C  s                 2      1.931958   1 C  s         
    18     -1.610928   2 C  s                 3     -1.461697   1 C  s         
    16     -1.266985   2 C  s                 1     -1.146824   1 C  s         
    19      1.055619   2 C  s                 4      0.968361   1 C  s         
    20     -0.837254   2 C  s                 5     -0.771391   1 C  s         
 
 Vector  102  Occ=0.000000D+00  E= 6.282081D+01
              MO Center= -1.4D+00,  7.1D-01,  1.4D+00, r^2= 5.7D-01
   Bfn.  Coefficient  Atom+Function         Bfn.  Coefficient  Atom+Function  
  ----- ------------  ---------------      ----- ------------  ---------------
    83      2.735115  12 C  s                84     -2.090775  12 C  s         
    82     -1.615313  12 C  s                85      1.413499  12 C  s         
    86     -1.188807  12 C  s                56      1.038537   7 C  s         
    87      0.912208  12 C  s                57     -0.796316   7 C  s         
    55     -0.612847   7 C  s                58      0.527300   7 C  s         
 
 Vector  103  Occ=0.000000D+00  E= 6.285517D+01
              MO Center= -4.7D-01,  3.5D-01,  9.3D-01, r^2= 4.4D-01
   Bfn.  Coefficient  Atom+Function         Bfn.  Coefficient  Atom+Function  
  ----- ------------  ---------------      ----- ------------  ---------------
    56      2.721398   7 C  s                57     -2.084647   7 C  s         
    55     -1.605623   7 C  s                58      1.432938   7 C  s         
    59     -1.250915   7 C  s                60      1.129664   7 C  s         
    83     -1.071766  12 C  s                84      0.818806  12 C  s         
    87     -0.647672  12 C  s                82      0.632806  12 C  s         
 
 Vector  104  Occ=0.000000D+00  E= 6.288563D+01
              MO Center= -3.1D-01, -5.9D-02, -6.1D-01, r^2= 5.3D-01
   Bfn.  Coefficient  Atom+Function         Bfn.  Coefficient  Atom+Function  
  ----- ------------  ---------------      ----- ------------  ---------------
    38      2.830292   5 C  s                39     -2.172804   5 C  s         
    37     -1.668614   5 C  s                40      1.507219   5 C  s         
    42      1.366279   5 C  s                41     -1.344517   5 C  s         
    17     -0.772949   2 C  s                18      0.590338   2 C  s         
    16      0.456415   2 C  s                19     -0.396624   2 C  s         
 
 Vector  105  Occ=0.000000D+00  E= 6.301284D+01
              MO Center=  1.2D+00, -5.7D-01, -1.1D+00, r^2= 7.6D-01
   Bfn.  Coefficient  Atom+Function         Bfn.  Coefficient  Atom+Function  
  ----- ------------  ---------------      ----- ------------  ---------------
     2      2.184647   1 C  s                17     -1.872774   2 C  s         
     3     -1.681273   1 C  s                18      1.439453   2 C  s         
     1     -1.285449   1 C  s                 4      1.167497   1 C  s         
     6      1.142674   1 C  s                16      1.102270   2 C  s         
     5     -1.070011   1 C  s                19     -0.988429   2 C  s         
 

   alpha - beta orbital overlaps 
   ----------------------------- 


   alpha      1      2      3      4      5      6      7      8      9     10
    beta      1      2      3      4      5      6      7      8      9     10
 overlap   1.000  1.000  1.000  1.000  1.000  0.999  0.999  0.999  1.000  0.999


   alpha     11     12     13     14     15     16     17     18     19     20
    beta     11     12     13     14     15     16     17     18     19     20
 overlap   1.000  1.000  1.000  0.999  0.999  0.999  0.997  0.997  1.000  0.999


   alpha     21     22     23     24     25     26     27     28     29     30
    beta     22     21     23     24     25     26     27     29     28     31
 overlap   0.837  0.834  0.989  0.992  0.890  0.891  0.978  0.729  0.712  0.814


   alpha     31     32     33     34     35     36     37     38     39     40
    beta     30     32     33     34     35     36     37     38     39     41
 overlap   0.832  0.997  0.997  0.998  0.998  0.998  0.999  0.997  0.994  0.797


   alpha     41     42     43     44     45     46     47     48     49     50
    beta     40     42     43     44     45     46     47     48     49     50
 overlap   0.800  0.997  0.992  0.994  0.999  0.994  0.993  0.996  0.994  0.979


   alpha     51     52     53     54     55     56     57     58     59     60
    beta     51     52     53     54     55     56     57     58     59     60
 overlap   0.996  0.979  0.994  0.990  0.912  0.884  0.962  0.999  0.999  0.999


   alpha     61     62     63     64     65     66     67     68     69     70
    beta     61     62     63     64     65     66     67     68     70     69
 overlap   0.999  0.998  0.999  1.000  1.000  1.000  0.995  0.942  0.904  0.966


   alpha     71     72     73     74     75     76     77     78     79     80
    beta     72     71     73     74     75     76     77     78     79     80
 overlap   0.961  0.998  0.969  1.000  1.000  1.000  1.000  1.000  1.000  1.000


   alpha     81     82     83     84     85     86     87     88     89     90
    beta     81     82     83     84     85     86     87     88     89     90
 overlap   1.000  1.000  1.000  1.000  0.999  0.999  0.997  0.998  1.000  1.000


   alpha     91     92     93     94     95     96     97     98     99    100
    beta     91     92     93     94     95     96     97     98     99    100
 overlap   1.000  1.000  1.000  1.000  1.000  1.000  1.000  1.000  1.000  1.000


   alpha    101    102    103    104    105
    beta    101    102    103    104    105
 overlap   1.000  1.000  1.000  1.000  1.000

     --------------------------
     Expectation value of S2:  
     --------------------------
      <S2> =      0.7510 (Exact =     0.7500)
 

 center of mass
 --------------
 x =   0.05025293 y =  -0.02671486 z =  -0.05523743

 moments of inertia (a.u.)
 ------------------
         431.498182111194         167.985783334940         256.121809800997
         167.985783334940         745.083091304542        -144.690525631379
         256.121809800997        -144.690525631379         507.211830691397
 
     Multipole analysis of the density
     ---------------------------------
 
     L   x y z        total         alpha         beta         nuclear
     -   - - -        -----         -----         ----         -------
     0   0 0 0     -1.000000    -21.000000    -20.000000     40.000000
 
     1   1 0 0     -0.380933     -0.312077     -0.068856     -0.000000
     1   0 1 0     -0.299507     -0.367089      0.067582     -0.000000
     1   0 0 1      0.161484      0.247193     -0.085709     -0.000000
 
     2   2 0 0    -40.150934   -152.643919   -141.071858    253.564843
     2   1 1 0      4.421349     54.258040     50.020917    -99.857608
     2   1 0 1      5.568651     79.411668     74.993955   -148.836972
     2   0 2 0    -35.639073    -53.946069    -45.817524     64.124520
     2   0 1 1     -2.392792    -45.107169    -42.769679     85.484056
     2   0 0 2    -35.926020   -126.069453   -117.251313    207.394746
 

 Task  times  cpu:      181.9s     wall:      188.0s
 
 
                                NWChem Input Module
                                -------------------
 
 
 Summary of allocated global arrays
-----------------------------------
  No active global arrays



                         GA Statistics for process    0
                         ------------------------------

       create   destroy   get      put      acc     scatter   gather  read&inc
calls: 6908     6908     1.13e+06 4.15e+04 9.49e+05    0        0     8194     
number of processes/call 8.48e+00 7.77e+01 6.54e+00 0.00e+00 0.00e+00
bytes total:             1.76e+09 2.28e+08 9.79e+08 0.00e+00 0.00e+00 6.56e+04
bytes remote:            1.48e+09 1.33e+08 8.57e+08 0.00e+00 0.00e+00 0.00e+00
Max memory consumed for GA by this process: 689280 bytes
 
 
 
                                     CITATION
                                     --------
                Please cite the following reference when publishing
                           results obtained with NWChem:
 
          E. Apr, E. J. Bylaska, W. A. de Jong, N. Govind, K. Kowalski,
       T. P. Straatsma, M. Valiev, H. J. J. van Dam, Y. Alexeev, J. Anchell,
       V. Anisimov, F. W. Aquino, R. Atta-Fynn, J. Autschbach, N. P. Bauman,
     J. C. Becca, D. E. Bernholdt, K. Bhaskaran-Nair, S. Bogatko, P. Borowski,
        J. Boschen, J. Brabec, A. Bruner, E. Caut, Y. Chen, G. N. Chuev,
      C. J. Cramer, J. Daily, M. J. O. Deegan, T. H. Dunning Jr., M. Dupuis,
   K. G. Dyall, G. I. Fann, S. A. Fischer, A. Fonari, H. Frchtl, L. Gagliardi,
      J. Garza, N. Gawande, S. Ghosh, K. Glaesemann, A. W. Gtz, J. Hammond,
       V. Helms, E. D. Hermes, K. Hirao, S. Hirata, M. Jacquelin, L. Jensen,
   B. G. Johnson, H. Jnsson, R. A. Kendall, M. Klemm, R. Kobayashi, V. Konkov,
      S. Krishnamoorthy, M. Krishnan, Z. Lin, R. D. Lins, R. J. Littlefield,
      A. J. Logsdail, K. Lopata, W. Ma, A. V. Marenich, J. Martin del Campo,
   D. Mejia-Rodriguez, J. E. Moore, J. M. Mullin, T. Nakajima, D. R. Nascimento,
    J. A. Nichols, P. J. Nichols, J. Nieplocha, A. Otero-de-la-Roza, B. Palmer,
    A. Panyala, T. Pirojsirikul, B. Peng, R. Peverati, J. Pittner, L. Pollack,
   R. M. Richard, P. Sadayappan, G. C. Schatz, W. A. Shelton, D. W. Silverstein,
   D. M. A. Smith, T. A. Soares, D. Song, M. Swart, H. L. Taylor, G. S. Thomas,
            V. Tipparaju, D. G. Truhlar, K. Tsemekhman, T. Van Voorhis,
     . Vzquez-Mayagoitia, P. Verma, O. Villa, A. Vishnu, K. D. Vogiatzis,
        D. Wang, J. H. Weare, M. J. Williamson, T. L. Windus, K. Woliski,
        A. T. Wong, Q. Wu, C. Yang, Q. Yu, M. Zacharias, Z. Zhang, Y. Zhao,
                                and R. J. Harrison
                        "NWChem: Past, present, and future
                         J. Chem. Phys. 152, 184102 (2020)
                               doi:10.1063/5.0004997
 
                                      AUTHORS
                                      -------
     E. Apra, E. J. Bylaska, N. Govind, K. Kowalski, M. Valiev, W. A. de Jong,
      T. P. Straatsma, H. J. J. van Dam, D. Wang, T. L. Windus, N. P. Bauman,
       A. Panyala, J. Hammond, J. Autschbach, K. Bhaskaran-Nair, J. Brabec,
    K. Lopata, S. A. Fischer, S. Krishnamoorthy, M. Jacquelin, W. Ma, M. Klemm,
       O. Villa, Y. Chen, V. Anisimov, F. Aquino, S. Hirata, M. T. Hackler,
           Eric Hermes, L. Jensen, J. E. Moore, J. C. Becca, V. Konjkov,
            D. Mejia-Rodriguez, T. Risthaus, M. Malagoli, A. Marenich,
   A. Otero-de-la-Roza, J. Mullin, P. Nichols, R. Peverati, J. Pittner, Y. Zhao,
        P.-D. Fan, A. Fonari, M. J. Williamson, R. J. Harrison, J. R. Rehr,
      M. Dupuis, D. Silverstein, D. M. A. Smith, J. Nieplocha, V. Tipparaju,
      M. Krishnan, B. E. Van Kuiken, A. Vazquez-Mayagoitia, M. Swart, Q. Wu,
   T. Van Voorhis, A. A. Auer, M. Nooijen, L. D. Crosby, E. Brown, G. Cisneros,
     G. I. Fann, H. Fruchtl, J. Garza, K. Hirao, R. A. Kendall, J. A. Nichols,
       K. Tsemekhman, K. Wolinski, J. Anchell, D. E. Bernholdt, P. Borowski,
       T. Clark, D. Clerc, H. Dachsel, M. J. O. Deegan, K. Dyall, D. Elwood,
      E. Glendening, M. Gutowski, A. C. Hess, J. Jaffe, B. G. Johnson, J. Ju,
        R. Kobayashi, R. Kutteh, Z. Lin, R. Littlefield, X. Long, B. Meng,
      T. Nakajima, S. Niu, L. Pollack, M. Rosing, K. Glaesemann, G. Sandrone,
      M. Stave, H. Taylor, G. Thomas, J. H. van Lenthe, A. T. Wong, Z. Zhang.

 Total times  cpu:      181.9s     wall:      188.1s
