 
             Northwest Computational Chemistry Package (NWChem) 7.0.0
             --------------------------------------------------------
 
 
                    Environmental Molecular Sciences Laboratory
                       Pacific Northwest National Laboratory
                                Richland, WA 99352
 
                              Copyright (c) 1994-2020
                       Pacific Northwest National Laboratory
                            Battelle Memorial Institute
 
             NWChem is an open-source computational chemistry package
                        distributed under the terms of the
                      Educational Community License (ECL) 2.0
             A copy of the license is included with this distribution
                              in the LICENSE.TXT file
 
                                  ACKNOWLEDGMENT
                                  --------------

            This software and its documentation were developed at the
            EMSL at Pacific Northwest National Laboratory, a multiprogram
            national laboratory, operated for the U.S. Department of Energy
            by Battelle under Contract Number DE-AC05-76RL01830. Support
            for this work was provided by the Department of Energy Office
            of Biological and Environmental Research, Office of Basic
            Energy Sciences, and the Office of Advanced Scientific Computing.


                                NWChem Input Module
                                -------------------
 
 
 Summary of "ao basis" -> "" (spherical)
 ------------------------------------------------------------------------------
       Tag                 Description            Shells   Functions and Types
 ---------------- ------------------------------  ------  ---------------------
 *                        ahlrichs_vtz                on all atoms 



 Scaling coordinates for geometry "geometry" by  1.889725989
 (inverse scale =  0.529177249)

 
 
                             Geometry "geometry" -> ""
                             -------------------------
 
 Output coordinates in angstroms (scale by  1.889725989 to convert to a.u.)
 
  No.       Tag          Charge          X              Y              Z
 ---- ---------------- ---------- -------------- -------------- --------------
    1 C                    6.0000    -0.46645994     0.41958267     0.23996048
    2 C                    6.0000     0.46646513    -0.41957496    -0.23996387
    3 H                    1.0000    -1.28634079     0.72932280    -0.42133078
    4 C                    6.0000    -0.48883785     0.98542524     1.63345147
    5 C                    6.0000     0.48883486    -0.98543036    -1.63344942
    6 H                    1.0000     1.28633704    -0.72932580     0.42133319
    7 H                    1.0000     0.36534659     0.62529388     2.22534693
    8 H                    1.0000    -1.41312845     0.70636015     2.16664530
    9 H                    1.0000    -0.45279499     2.08770842     1.62119486
   10 H                    1.0000    -0.36534835    -0.62529570    -2.22534505
   11 H                    1.0000     0.45278992    -2.08771277    -1.62119190
   12 H                    1.0000     1.41312583    -0.70636660    -2.16664441
 
      Atomic Mass 
      ----------- 
 
      C                 12.000000
      H                  1.007825
 

 Effective nuclear repulsion energy (a.u.)     115.1608123174

            Nuclear Dipole moment (a.u.) 
            ----------------------------
        X                 Y               Z
 ---------------- ---------------- ----------------
    -0.0000000000    -0.0000000000    -0.0000000000
 
 
            XYZ format geometry
            -------------------
    12
 geometry
 C                    -0.46645994     0.41958267     0.23996048
 C                     0.46646513    -0.41957496    -0.23996387
 H                    -1.28634079     0.72932280    -0.42133078
 C                    -0.48883785     0.98542524     1.63345147
 C                     0.48883486    -0.98543036    -1.63344942
 H                     1.28633704    -0.72932580     0.42133319
 H                     0.36534659     0.62529388     2.22534693
 H                    -1.41312845     0.70636015     2.16664530
 H                    -0.45279499     2.08770842     1.62119486
 H                    -0.36534835    -0.62529570    -2.22534505
 H                     0.45278992    -2.08771277    -1.62119190
 H                     1.41312583    -0.70636660    -2.16664441
 
 ==============================================================================
                                internuclear distances
 ------------------------------------------------------------------------------
       center one      |      center two      | atomic units |  angstroms
 ------------------------------------------------------------------------------
    2 C                |   1 C                |     2.53876  |     1.34345
    3 H                |   1 C                |     2.07479  |     1.09793
    4 C                |   1 C                |     2.84245  |     1.50416
    5 C                |   2 C                |     2.84245  |     1.50416
    6 H                |   2 C                |     2.07479  |     1.09793
    7 H                |   4 C                |     2.07841  |     1.09985
    8 H                |   4 C                |     2.08426  |     1.10294
    9 H                |   4 C                |     2.08426  |     1.10294
   10 H                |   5 C                |     2.07841  |     1.09985
   11 H                |   5 C                |     2.08425  |     1.10294
   12 H                |   5 C                |     2.08426  |     1.10294
 ------------------------------------------------------------------------------
                         number of included internuclear distances:         11
 ==============================================================================



 ==============================================================================
                                 internuclear angles
 ------------------------------------------------------------------------------
        center 1       |       center 2       |       center 3       |  degrees
 ------------------------------------------------------------------------------
    2 C                |   1 C                |   3 H                |   118.66
    2 C                |   1 C                |   4 C                |   125.19
    3 H                |   1 C                |   4 C                |   116.15
    1 C                |   2 C                |   5 C                |   125.19
    1 C                |   2 C                |   6 H                |   118.66
    5 C                |   2 C                |   6 H                |   116.15
    1 C                |   4 C                |   7 H                |   111.34
    1 C                |   4 C                |   8 H                |   111.42
    1 C                |   4 C                |   9 H                |   111.42
    7 H                |   4 C                |   8 H                |   107.93
    7 H                |   4 C                |   9 H                |   107.93
    8 H                |   4 C                |   9 H                |   106.60
    2 C                |   5 C                |  10 H                |   111.34
    2 C                |   5 C                |  11 H                |   111.42
    2 C                |   5 C                |  12 H                |   111.42
   10 H                |   5 C                |  11 H                |   107.93
   10 H                |   5 C                |  12 H                |   107.93
   11 H                |   5 C                |  12 H                |   106.60
 ------------------------------------------------------------------------------
                            number of included internuclear angles:         18
 ==============================================================================



                              Aldehyde and Ketone set
                              -----------------------
 
                                 NWChem DFT Module
                                 -----------------
 
 
                              Aldehyde and Ketone set
 
 
                      Basis "ao basis" -> "ao basis" (spherical)
                      -----
  C (Carbon)
  ----------
            Exponent  Coefficients 
       -------------- ---------------------------------------------------------
  1 S  8.50603840E+03  0.000534
  1 S  1.27573290E+03  0.004125
  1 S  2.90311870E+02  0.021171
  1 S  8.20562000E+01  0.082418
  1 S  2.64796410E+01  0.240129
 
  2 S  9.24145850E+00  1.000000
 
  3 S  3.36435300E+00  1.000000
 
  4 S  8.71741640E-01  1.000000
 
  5 S  3.63523520E-01  1.000000
 
  6 S  1.28731350E-01  1.000000
 
  7 P  3.47094960E+01  0.005330
  7 P  7.95908830E+00  0.035866
  7 P  2.37869720E+00  0.142003
  7 P  8.15400650E-01  0.342031
 
  8 P  2.89537850E-01  1.000000
 
  9 P  1.00847540E-01  1.000000
 
  H (Hydrogen)
  ------------
            Exponent  Coefficients 
       -------------- ---------------------------------------------------------
  1 S  3.40613410E+01  0.006025
  1 S  5.12357460E+00  0.045021
  1 S  1.16466260E+00  0.201897
 
  2 S  3.27230410E-01  1.000000
 
  3 S  1.03072410E-01  1.000000
 


 Summary of "ao basis" -> "ao basis" (spherical)
 ------------------------------------------------------------------------------
       Tag                 Description            Shells   Functions and Types
 ---------------- ------------------------------  ------  ---------------------
 C                        ahlrichs vtz               9       15   6s3p
 H                        ahlrichs vtz               3        3   3s




 Summary of "ao basis" -> "ao basis" (spherical)
 ------------------------------------------------------------------------------
       Tag                 Description            Shells   Functions and Types
 ---------------- ------------------------------  ------  ---------------------
 C                        ahlrichs vtz               9       15   6s3p
 H                        ahlrichs vtz               3        3   3s


  Caching 1-el integrals 
 
            General Information
            -------------------
          SCF calculation type: DFT
          Wavefunction type:  spin polarized.
          No. of atoms     :    12
          No. of electrons :    33
           Alpha electrons :    17
            Beta electrons :    16
          Charge           :    -1
          Spin multiplicity:     2
          Use of symmetry is: off; symmetry adaption is: off
          Maximum number of iterations: 999
          This is a Direct SCF calculation.
          AO basis - number of functions:    84
                     number of shells:    60
          Convergence on energy requested:  1.00D-08
          Convergence on density requested:  1.00D-07
          Convergence on gradient requested:  1.00D-06
 
              XC Information
              --------------
                        PBE96 Method XC Functional
          PerdewBurkeErnzerhof Exchange Functional  1.000          
            Perdew 1991 LDA Correlation Functional  1.000 local    
           PerdewBurkeErnz. Correlation Functional  1.000 non-local
 
             Grid Information
             ----------------
          Grid used for XC integration:  fine      
          Radial quadrature: Mura-Knowles        
          Angular quadrature: Lebedev. 
          Tag              B.-S. Rad. Rad. Pts. Rad. Cut. Ang. Pts.
          ---              ---------- --------- --------- ---------
          C                   0.70       70          12.0       590
          H                   0.35       60          13.0       590
          Grid pruning is: on 
          Number of quadrature shells:   760
          Spatial weights used:  Erf1
 
          Convergence Information
          -----------------------
          Convergence aids based upon iterative change in 
          total energy or number of iterations. 
          Levelshifting, if invoked, occurs when the 
          HOMO/LUMO gap drops below (HL_TOL):  1.00D-02
          DIIS, if invoked, will attempt to extrapolate 
          using up to (NFOCK): 10 stored Fock matrices.

                    Damping( 0%)  Levelshifting(0.5)       DIIS
                  --------------- ------------------- ---------------
          dE  on:    start            ASAP                start   
          dE off:    2 iters        999 iters           999 iters 

 
      Screening Tolerance Information
      -------------------------------
          Density screening/tol_rho:  1.00D-12
          AO Gaussian exp screening on grid/accAOfunc:  18
          CD Gaussian exp screening on grid/accCDfunc:  20
          XC Gaussian exp screening on grid/accXCfunc:  20
          Schwarz screening/accCoul:  1.00D-12

      Dispersion Parameters
      ---------------------

           DFT-D3BJ Model   
          s6 scale factor  :        1.000000000000
          s8 scale factor  :        0.787500000000
          a1 parameter     :        0.428900000000
          a2 parameter     :        4.440700000000
              vdW contrib  :       -0.007354969552


 Forcing the number of linearly dependent vectors to be  0
 
      Superposition of Atomic Density Guess
      -------------------------------------
 
 Sum of atomic energies:        -154.68305411
   Time after variat. SCF:      0.2
   Time prior to 1st pass:      0.2

 Grid_pts file          = ./16_transMeCHCHMe.gridpts.00
 Record size in doubles =  12289        No. of grid_pts per rec  =   3070
 Max. records in memory =     12        Max. recs in file   =  67550051

 Grid integrated density:      32.000006059459
 Requested integration accuracy:   0.10E-06

           Memory utilization after 1st SCF pass: 
           Heap Space remaining (MW):        0.00                 218
          Stack Space remaining (MW):      288.36           288357188

   convergence    iter        energy       DeltaE   RMS-Dens  Diis-err    time
 ---------------- ----- ----------------- --------- --------- ---------  ------
 d= 0,ls=0.0,diis     1   -157.3922158595 -2.73D+02  1.87D-02  1.18D+01     0.5
                                                     1.54D-02  1.05D+01
 d= 0,ls=0.0,diis     2   -156.4911676691  9.01D-01  2.01D-01  7.33D-01     0.8
                                                     2.00D-01  6.61D-01
 Grid integrated density:      33.000014317158
 Requested integration accuracy:   0.10E-06
 d= 0,ls=0.5,diis     3   -154.8660797648  1.63D+00  2.84D-02  2.82D+00     1.1
                                                     2.99D-02  2.48D+00
 Grid integrated density:      33.000007525341
 Requested integration accuracy:   0.10E-06
 d= 0,ls=0.5,diis     4   -156.0294423219 -1.16D+00  1.89D-02  9.28D-01     1.5
                                                     1.98D-02  8.12D-01
 Grid integrated density:      33.000003762259
 Requested integration accuracy:   0.10E-06
 d= 0,ls=0.5,diis     5   -156.4496491978 -4.20D-01  1.33D-02  2.73D-01     1.8
                                                     1.35D-02  2.45D-01
 d= 0,ls=0.5,diis     6   -156.5913222071 -1.42D-01  8.54D-03  6.69D-02     2.1
                                                     8.77D-03  6.30D-02
 d= 0,ls=0.5,diis     7   -156.6352561075 -4.39D-02  6.46D-03  1.16D-02     2.4
                                                     6.69D-03  1.25D-02
 d= 0,ls=0.5,diis     8   -156.6457178760 -1.05D-02  4.22D-03  1.74D-03     2.7
                                                     4.31D-03  2.55D-03
 d= 0,ls=0.5,diis     9   -156.6481952656 -2.48D-03  2.72D-03  5.30D-04     3.0
                                                     3.07D-03  1.16D-03
 d= 0,ls=0.5,diis    10   -156.6497212139 -1.53D-03  1.86D-03  2.06D-04     3.3
                                                     3.57D-03  9.17D-04
 d= 0,ls=0.5,diis    11   -156.6527261323 -3.00D-03  1.46D-03  6.74D-05     3.7
                                                     7.93D-03  1.95D-03
 d= 0,ls=0.5,diis    12   -156.6637701143 -1.10D-02  1.21D-03  1.55D-04     4.0
                                                     2.14D-02  7.18D-03
 d= 0,ls=0.5,diis    13   -156.6993433682 -3.56D-02  7.80D-04  2.31D-03     4.3
                                                     3.83D-02  2.13D-02
 d= 0,ls=0.5,diis    14   -156.7622618617 -6.29D-02  5.79D-04  1.16D-02     4.6
                                                     3.71D-02  3.49D-02
 d= 0,ls=0.5,diis    15   -156.8171759162 -5.49D-02  4.83D-04  2.80D-02     4.9
                                                     2.34D-02  3.93D-02
 d= 0,ls=0.5,diis    16   -156.8480459420 -3.09D-02  6.17D-04  4.16D-02     5.3
                                                     1.22D-02  4.13D-02
 Grid integrated density:      33.000003434475
 Requested integration accuracy:   0.10E-06
 d= 0,ls=0.5,diis    17   -156.8647515847 -1.67D-02  4.29D-04  4.52D-02     5.6
                                                     6.10D-03  3.94D-02
 Grid integrated density:      33.000003536758
 Requested integration accuracy:   0.10E-06
 d= 0,ls=0.5,diis    18   -156.8719898137 -7.24D-03  4.97D-04  4.74D-02     5.9
                                                     3.18D-03  3.90D-02
 Grid integrated density:      33.000003596316
 Requested integration accuracy:   0.10E-06
 d= 0,ls=0.5,diis    19   -156.8759324199 -3.94D-03  6.31D-04  4.69D-02     6.2
                                                     1.78D-03  3.76D-02
 Grid integrated density:      33.000003656237
 Requested integration accuracy:   0.10E-06
 d= 0,ls=0.5,diis    20   -156.8789699777 -3.04D-03  6.59D-04  4.43D-02     6.5
                                                     1.06D-03  3.53D-02
 Grid integrated density:      33.000003705177
 Requested integration accuracy:   0.10E-06
 d= 0,ls=0.5,diis    21   -156.8810715474 -2.10D-03  8.92D-04  4.19D-02     6.9
                                                     6.64D-04  3.32D-02
 Grid integrated density:      33.000003774729
 Requested integration accuracy:   0.10E-06
 d= 0,ls=0.5,diis    22   -156.8834636633 -2.39D-03  1.06D-03  3.83D-02     7.2
                                                     4.56D-04  3.03D-02
 Grid integrated density:      33.000003865025
 Requested integration accuracy:   0.10E-06
 d= 0,ls=0.5,diis    23   -156.8862767361 -2.81D-03  3.33D-03  3.38D-02     7.5
                                                     5.08D-04  2.67D-02
 Grid integrated density:      33.000004248799
 Requested integration accuracy:   0.10E-06
 d= 0,ls=0.5,diis    24   -156.8955767887 -9.30D-03  4.93D-03  1.80D-02     7.8
                                                     6.30D-04  1.42D-02
 Grid integrated density:      33.000004837940
 Requested integration accuracy:   0.10E-06
 d= 0,ls=0.5,diis    25   -156.9036638995 -8.09D-03  3.98D-03  4.76D-03     8.1
                                                     3.69D-04  3.64D-03
 Grid integrated density:      33.000005203924
 Requested integration accuracy:   0.10E-06
 d= 0,ls=0.5,diis    26   -156.9059585423 -2.29D-03  3.19D-03  1.34D-03     8.5
                                                     2.48D-04  9.71D-04
 Grid integrated density:      33.000005424073
 Requested integration accuracy:   0.10E-06
 d= 0,ls=0.5,diis    27   -156.9066571740 -6.99D-04  2.36D-03  3.73D-04     8.8
                                                     1.57D-04  2.53D-04
 Grid integrated density:      33.000005551165
 Requested integration accuracy:   0.10E-06
 d= 0,ls=0.5,diis    28   -156.9068697257 -2.13D-04  1.81D-03  1.05D-04     9.1
                                                     9.38D-05  6.36D-05
 Grid integrated density:      33.000005622577
 Requested integration accuracy:   0.10E-06
 d= 0,ls=0.5,diis    29   -156.9069356738 -6.59D-05  1.37D-03  3.28D-05     9.4
                                                     5.53D-05  1.74D-05
 Grid integrated density:      33.000005663155
 Requested integration accuracy:   0.10E-06
 d= 0,ls=0.5,diis    30   -156.9069596280 -2.40D-05  1.05D-03  1.25D-05     9.7
                                                     3.30D-05  5.62D-06
 Grid integrated density:      33.000005689055
 Requested integration accuracy:   0.10E-06
 d= 0,ls=0.5,diis    31   -156.9069707077 -1.11D-05  8.40D-04  5.60D-06    10.0
                                                     1.99D-05  1.91D-06
 Grid integrated density:      33.000005707775
 Requested integration accuracy:   0.10E-06
 d= 0,ls=0.5,diis    32   -156.9069770812 -6.37D-06  6.90D-04  3.08D-06    10.3
                                                     1.23D-05  6.47D-07
 Grid integrated density:      33.000005722242
 Requested integration accuracy:   0.10E-06
 d= 0,ls=0.5,diis    33   -156.9069815200 -4.44D-06  5.75D-04  2.11D-06    10.7
                                                     8.09D-06  2.45D-07
 Grid integrated density:      33.000005733980
 Requested integration accuracy:   0.10E-06
 d= 0,ls=0.5,diis    34   -156.9069850601 -3.54D-06  5.21D-04  1.67D-06    11.0
                                                     7.49D-06  8.97D-08
 Grid integrated density:      33.000005744523
 Requested integration accuracy:   0.10E-06
 d= 0,ls=0.5,diis    35   -156.9069881530 -3.09D-06  4.26D-04  1.48D-06    11.3
                                                     4.22D-06  5.94D-08
 Grid integrated density:      33.000005753402
 Requested integration accuracy:   0.10E-06
 d= 0,ls=0.5,diis    36   -156.9069908932 -2.74D-06  4.57D-04  1.33D-06    11.6
                                                     9.82D-06  3.68D-08
 Grid integrated density:      33.000005762361
 Requested integration accuracy:   0.10E-06
 d= 0,ls=0.5,diis    37   -156.9069934286 -2.54D-06  3.97D-04  1.43D-06    11.9
                                                     6.00D-06  1.76D-07
 Grid integrated density:      33.000005770495
 Requested integration accuracy:   0.10E-06
 d= 0,ls=0.5,diis    38   -156.9069958397 -2.41D-06  3.48D-04  1.44D-06    12.3
                                                     3.30D-06  2.43D-07
 Grid integrated density:      33.000005777842
 Requested integration accuracy:   0.10E-06
 d= 0,ls=0.5,diis    39   -156.9069981626 -2.32D-06  3.63D-04  1.34D-06    12.6
                                                     6.38D-06  2.10D-07
 Grid integrated density:      33.000005785190
 Requested integration accuracy:   0.10E-06
 d= 0,ls=0.5,diis    40   -156.9070003026 -2.14D-06  3.46D-04  1.41D-06    12.9
                                                     6.18D-06  3.21D-07
 Grid integrated density:      33.000005792042
 Requested integration accuracy:   0.10E-06
 d= 0,ls=0.5,diis    41   -156.9070023466 -2.04D-06  3.11D-04  1.49D-06    13.2
                                                     3.51D-06  4.35D-07
 Grid integrated density:      33.000005798158
 Requested integration accuracy:   0.10E-06
 d= 0,ls=0.5,diis    42   -156.9070043806 -2.03D-06  3.21D-04  1.42D-06    13.5
                                                     6.43D-06  4.16D-07
 Grid integrated density:      33.000005803849
 Requested integration accuracy:   0.10E-06
 d= 0,ls=0.5,diis    43   -156.9070061942 -1.81D-06  3.21D-04  1.57D-06    13.8
                                                     6.53D-06  5.76D-07
 Grid integrated density:      33.000005810125
 Requested integration accuracy:   0.10E-06
 d= 0,ls=0.5,diis    44   -156.9070079299 -1.74D-06  2.85D-04  1.72D-06    14.1
                                                     2.94D-06  7.51D-07
 Grid integrated density:      33.000005815764
 Requested integration accuracy:   0.10E-06
 d= 0,ls=0.5,diis    45   -156.9070097747 -1.84D-06  3.21D-04  1.59D-06    14.5
                                                     9.54D-06  6.79D-07
 Grid integrated density:      33.000005821206
 Requested integration accuracy:   0.10E-06
 d= 0,ls=0.5,diis    46   -156.9070111875 -1.41D-06  2.90D-04  2.00D-06    14.8
                                                     4.68D-06  1.09D-06
 Grid integrated density:      33.000005826389
 Requested integration accuracy:   0.10E-06
 d= 0,ls=0.5,diis    47   -156.9070128099 -1.62D-06  2.49D-04  2.01D-06    15.1
                                                     2.93D-06  1.15D-06
 Grid integrated density:      33.000005831309
 Requested integration accuracy:   0.10E-06
 d= 0,ls=0.5,diis    48   -156.9070147233 -1.91D-06  3.10D-04  1.54D-06    15.4
                                                     8.94D-06  7.65D-07
 Grid integrated density:      33.000005836868
 Requested integration accuracy:   0.10E-06
 d= 0,ls=0.5,diis    49   -156.9070158433 -1.12D-06  3.38D-04  2.04D-06    15.7
                                                     1.14D-05  1.25D-06
 Grid integrated density:      33.000005843020
 Requested integration accuracy:   0.10E-06
 d= 0,ls=0.5,diis    50   -156.9070166574 -8.14D-07  2.97D-04  2.86D-06    16.0
                                                     5.85D-06  2.04D-06
 Grid integrated density:      33.000005848649
 Requested integration accuracy:   0.10E-06
 d= 0,ls=0.5,diis    51   -156.9070179044 -1.25D-06  2.59D-04  3.05D-06    16.3
                                                     2.43D-06  2.25D-06
 Grid integrated density:      33.000005853445
 Requested integration accuracy:   0.10E-06
 d= 0,ls=0.5,diis    52   -156.9070194766 -1.57D-06  2.17D-04  2.78D-06    16.7
                                                     4.40D-06  2.04D-06
 Grid integrated density:      33.000005857404
 Requested integration accuracy:   0.10E-06
 d= 0,ls=0.5,diis    53   -156.9070213771 -1.90D-06  2.44D-04  2.01D-06    17.0
                                                     3.47D-06  1.35D-06
 Grid integrated density:      33.000005862073
 Requested integration accuracy:   0.10E-06
 d= 0,ls=0.5,diis    54   -156.9070225375 -1.16D-06  2.64D-04  2.08D-06    17.3
                                                     8.81D-06  1.45D-06
 Grid integrated density:      33.000005866785
 Requested integration accuracy:   0.10E-06
 d= 0,ls=0.5,diis    55   -156.9070232614 -7.24D-07  2.50D-04  2.62D-06    17.6
                                                     5.40D-06  1.97D-06
 Grid integrated density:      33.000005871079
 Requested integration accuracy:   0.10E-06
 d= 0,ls=0.5,diis    56   -156.9070242106 -9.49D-07  2.21D-04  2.82D-06    17.9
                                                     1.65D-06  2.18D-06
 Grid integrated density:      33.000005874674
 Requested integration accuracy:   0.10E-06
 d= 0,ls=0.5,diis    57   -156.9070255393 -1.33D-06  2.16D-04  2.52D-06    18.2
                                                     1.14D-06  1.91D-06
 Grid integrated density:      33.000005878608
 Requested integration accuracy:   0.10E-06
 d= 0,ls=0.5,diis    58   -156.9070267324 -1.19D-06  1.92D-04  2.32D-06    18.5
                                                     2.71D-06  1.75D-06
 Grid integrated density:      33.000005881782
 Requested integration accuracy:   0.10E-06
 d= 0,ls=0.5,diis    59   -156.9070281180 -1.39D-06  1.98D-04  1.84D-06    18.9
                                                     1.43D-06  1.31D-06
 Grid integrated density:      33.000005885355
 Requested integration accuracy:   0.10E-06
 d= 0,ls=0.5,diis    60   -156.9070291245 -1.01D-06  1.97D-04  1.76D-06    19.2
                                                     2.08D-06  1.25D-06
 Grid integrated density:      33.000005888816
 Requested integration accuracy:   0.10E-06
 d= 0,ls=0.5,diis    61   -156.9070300442 -9.20D-07  1.84D-04  1.73D-06    19.5
                                                     6.25D-07  1.24D-06
 Grid integrated density:      33.000005892086
 Requested integration accuracy:   0.10E-06
 d= 0,ls=0.5,diis    62   -156.9070310531 -1.01D-06  1.75D-04  1.56D-06    19.8
                                                     9.79D-07  1.09D-06
 Grid integrated density:      33.000005895089
 Requested integration accuracy:   0.10E-06
 d= 0,ls=0.5,diis    63   -156.9070320457 -9.93D-07  1.69D-04  1.36D-06    20.1
                                                     5.94D-07  9.16D-07
 Grid integrated density:      33.000005897971
 Requested integration accuracy:   0.10E-06
 d= 0,ls=0.5,diis    64   -156.9070329818 -9.36D-07  1.65D-04  1.20D-06    20.4
                                                     3.72D-07  7.74D-07
 Grid integrated density:      33.000005900777
 Requested integration accuracy:   0.10E-06
 d= 0,ls=0.5,diis    65   -156.9070338520 -8.70D-07  1.71D-04  1.09D-06    20.7
                                                     2.34D-06  6.78D-07
 Grid integrated density:      33.000005903636
 Requested integration accuracy:   0.10E-06
 d= 0,ls=0.5,diis    66   -156.9070345931 -7.41D-07  1.46D-04  1.12D-06    21.1
                                                     3.01D-06  7.13D-07
 Grid integrated density:      33.000005905804
 Requested integration accuracy:   0.10E-06
 d= 0,ls=0.5,diis    67   -156.9070355623 -9.69D-07  1.37D-04  8.45D-07    21.4
                                                     3.00D-06  4.57D-07
 Grid integrated density:      33.000005908215
 Requested integration accuracy:   0.10E-06
 d= 0,ls=0.5,diis    68   -156.9070364454 -8.83D-07  1.31D-04  6.41D-07    21.7
                                                     2.57D-06  2.71D-07
 Grid integrated density:      33.000005910280
 Requested integration accuracy:   0.10E-06
 d= 0,ls=0.5,diis    69   -156.9070372569 -8.11D-07  1.33D-04  5.03D-07    22.0
                                                     7.82D-07  1.48D-07
 Grid integrated density:      33.000005912471
 Requested integration accuracy:   0.10E-06
 d= 0,ls=0.5,diis    70   -156.9070379896 -7.33D-07  1.39D-04  4.68D-07    22.3
                                                     1.82D-06  1.13D-07
 Grid integrated density:      33.000005914783
 Requested integration accuracy:   0.10E-06
 d= 0,ls=0.5,diis    71   -156.9070386985 -7.09D-07  1.21D-04  4.85D-07    22.6
                                                     2.42D-06  1.21D-07
 Grid integrated density:      33.000005916890
 Requested integration accuracy:   0.10E-06
 d= 0,ls=0.5,diis    72   -156.9070394683 -7.70D-07  1.18D-04  4.08D-07    23.0
                                                     1.61D-06  4.79D-08
 Grid integrated density:      33.000005918868
 Requested integration accuracy:   0.10E-06
 d= 0,ls=0.5,diis    73   -156.9070402079 -7.40D-07  1.17D-04  3.84D-07    23.3
                                                     7.01D-07  1.96D-08
 Grid integrated density:      33.000005920691
 Requested integration accuracy:   0.10E-06
 d= 0,ls=0.5,diis    74   -156.9070409496 -7.42D-07  1.07D-04  3.86D-07    23.6
                                                     3.24D-06  1.27D-08
 Grid integrated density:      33.000005921997
 Requested integration accuracy:   0.10E-06
 d= 0,ls=0.5,diis    75   -156.9070416747 -7.25D-07  1.01D-04  4.02D-07    23.9
                                                     3.19D-06  2.66D-08
 Grid integrated density:      33.000005923343
 Requested integration accuracy:   0.10E-06
 d= 0,ls=0.5,diis    76   -156.9070423760 -7.01D-07  9.91D-05  4.56D-07    24.3
                                                     2.43D-06  7.83D-08
 Grid integrated density:      33.000005924558
 Requested integration accuracy:   0.10E-06
 d= 0,ls=0.5,diis    77   -156.9070430902 -7.14D-07  9.98D-05  5.32D-07    24.6
                                                     1.24D-06  1.47D-07
 Grid integrated density:      33.000005925747
 Requested integration accuracy:   0.10E-06
 d= 0,ls=0.5,diis    78   -156.9070438626 -7.72D-07  1.03D-04  6.03D-07    24.9
                                                     9.73D-07  2.03D-07
 Grid integrated density:      33.000005926714
 Requested integration accuracy:   0.10E-06
 d= 0,ls=0.5,diis    79   -156.9070447169 -8.54D-07  1.04D-04  6.57D-07    25.2
                                                     6.75D-07  2.38D-07
 Grid integrated density:      33.000005927889
 Requested integration accuracy:   0.10E-06
 d= 0,ls=0.5,diis    80   -156.9070456371 -9.20D-07  1.05D-04  7.11D-07    25.5
                                                     5.11D-07  2.68D-07
 Grid integrated density:      33.000005929184
 Requested integration accuracy:   0.10E-06
 d= 0,ls=0.5,diis    81   -156.9070466304 -9.93D-07  1.07D-04  7.73D-07    25.8
                                                     7.27D-07  2.98D-07
 Grid integrated density:      33.000005930599
 Requested integration accuracy:   0.10E-06
 d= 0,ls=0.5,diis    82   -156.9070477039 -1.07D-06  1.02D-04  8.40D-07    26.2
                                                     1.66D-06  3.32D-07
 Grid integrated density:      33.000005931700
 Requested integration accuracy:   0.10E-06
 d= 0,ls=0.5,diis    83   -156.9070487809 -1.08D-06  1.08D-04  9.79D-07    26.5
                                                     8.25D-07  4.40D-07
 Grid integrated density:      33.000005932789
 Requested integration accuracy:   0.10E-06
 d= 0,ls=0.5,diis    84   -156.9070500319 -1.25D-06  1.09D-04  1.06D-06    26.8
                                                     3.16D-07  4.80D-07
 Grid integrated density:      33.000005933920
 Requested integration accuracy:   0.10E-06
 d= 0,ls=0.5,diis    85   -156.9070513785 -1.35D-06  1.10D-04  1.16D-06    27.1
                                                     1.57D-06  5.36D-07
 Grid integrated density:      33.000005935023
 Requested integration accuracy:   0.10E-06
 d= 0,ls=0.5,diis    86   -156.9070528390 -1.46D-06  1.14D-04  1.25D-06    27.4
                                                     1.33D-06  5.95D-07
 Grid integrated density:      33.000005936186
 Requested integration accuracy:   0.10E-06
 d= 0,ls=0.5,diis    87   -156.9070544365 -1.60D-06  1.16D-04  1.35D-06    27.8
                                                     9.08D-07  6.57D-07
 Grid integrated density:      33.000005937214
 Requested integration accuracy:   0.10E-06
 d= 0,ls=0.5,diis    88   -156.9070561636 -1.73D-06  1.20D-04  1.48D-06    28.1
                                                     3.01D-07  7.40D-07
 Grid integrated density:      33.000005938298
 Requested integration accuracy:   0.10E-06
 d= 0,ls=0.5,diis    89   -156.9070580598 -1.90D-06  1.26D-04  1.64D-06    28.4
                                                     1.06D-06  8.27D-07
 Grid integrated density:      33.000005939285
 Requested integration accuracy:   0.10E-06
 d= 0,ls=0.5,diis    90   -156.9070601666 -2.11D-06  1.30D-04  1.78D-06    28.7
                                                     6.86D-07  9.04D-07
 Grid integrated density:      33.000005940284
 Requested integration accuracy:   0.10E-06
 d= 0,ls=0.5,diis    91   -156.9070624694 -2.30D-06  1.35D-04  1.96D-06    29.0
                                                     3.82D-07  9.99D-07
 Grid integrated density:      33.000005941347
 Requested integration accuracy:   0.10E-06
 d= 0,ls=0.5,diis    92   -156.9070649929 -2.52D-06  1.41D-04  2.16D-06    29.6
                                                     1.72D-06  1.11D-06
 Grid integrated density:      33.000005941998
 Requested integration accuracy:   0.10E-06
 d= 0,ls=0.5,diis    93   -156.9070677569 -2.76D-06  1.44D-04  2.39D-06    29.9
                                                     1.71D-06  1.26D-06
 Grid integrated density:      33.000005942985
 Requested integration accuracy:   0.10E-06
 d= 0,ls=0.5,diis    94   -156.9070707434 -2.99D-06  1.51D-04  2.64D-06    30.2
                                                     1.02D-06  1.45D-06
 Grid integrated density:      33.000005944079
 Requested integration accuracy:   0.10E-06
 d= 0,ls=0.5,diis    95   -156.9070740535 -3.31D-06  1.58D-04  2.91D-06    30.5
                                                     4.12D-07  1.62D-06
 Grid integrated density:      33.000005945335
 Requested integration accuracy:   0.10E-06
 d= 0,ls=0.5,diis    96   -156.9070777181 -3.66D-06  1.64D-04  3.22D-06    30.9
                                                     5.17D-07  1.80D-06
 Grid integrated density:      33.000005946639
 Requested integration accuracy:   0.10E-06
 d= 0,ls=0.5,diis    97   -156.9070817322 -4.01D-06  1.72D-04  3.56D-06    31.6
                                                     3.36D-07  2.02D-06
 Grid integrated density:      33.000005947928
 Requested integration accuracy:   0.10E-06
 d= 0,ls=0.5,diis    98   -156.9070861858 -4.45D-06  1.79D-04  3.93D-06    31.9
                                                     6.36D-07  2.23D-06
 Grid integrated density:      33.000005949135
 Requested integration accuracy:   0.10E-06
 d= 0,ls=0.5,diis    99   -156.9070910733 -4.89D-06  1.89D-04  4.34D-06    32.2
                                                     6.29D-07  2.50D-06
 Grid integrated density:      33.000005950248
 Requested integration accuracy:   0.10E-06
 d= 0,ls=0.5,diis   100   -156.9070965109 -5.44D-06  1.98D-04  4.80D-06    32.5
                                                     8.30D-07  2.78D-06
 Grid integrated density:      33.000005951048
 Requested integration accuracy:   0.10E-06
 d= 0,ls=0.5,diis   101   -156.9071024374 -5.93D-06  2.10D-04  5.39D-06    32.9
                                                     1.72D-06  3.18D-06
 Grid integrated density:      33.000005951975
 Requested integration accuracy:   0.10E-06
 d= 0,ls=0.5,diis   102   -156.9071090515 -6.61D-06  2.18D-04  6.01D-06    33.5
                                                     1.18D-06  3.58D-06
 Grid integrated density:      33.000005952989
 Requested integration accuracy:   0.10E-06
 d= 0,ls=0.5,diis   103   -156.9071162511 -7.20D-06  2.28D-04  6.72D-06    33.8
                                                     7.47D-07  4.08D-06
 Grid integrated density:      33.000005954356
 Requested integration accuracy:   0.10E-06
 d= 0,ls=0.5,diis   104   -156.9071242142 -7.96D-06  2.41D-04  7.46D-06    34.1
                                                     1.23D-06  4.59D-06
 Grid integrated density:      33.000005955176
 Requested integration accuracy:   0.10E-06
 d= 0,ls=0.5,diis   105   -156.9071329384 -8.72D-06  2.53D-04  8.40D-06    34.4
                                                     8.15D-07  5.31D-06
 Grid integrated density:      33.000005956358
 Requested integration accuracy:   0.10E-06
 d= 0,ls=0.5,diis   106   -156.9071425995 -9.66D-06  2.66D-04  9.39D-06    34.8
                                                     9.86D-07  6.03D-06
 Grid integrated density:      33.000005957473
 Requested integration accuracy:   0.10E-06
 d= 0,ls=0.5,diis   107   -156.9071532467 -1.06D-05  2.80D-04  1.05D-05    35.1
                                                     1.02D-06  6.88D-06
 Grid integrated density:      33.000005959191
 Requested integration accuracy:   0.10E-06
 d= 0,ls=0.5,diis   108   -156.9071650985 -1.19D-05  2.98D-04  1.16D-05    35.4
                                                     1.36D-06  7.62D-06
 Grid integrated density:      33.000005960893
 Requested integration accuracy:   0.10E-06
 d= 0,ls=0.5,diis   109   -156.9071782137 -1.31D-05  3.22D-04  1.29D-05    35.7
                                                     3.52D-06  8.48D-06
 Grid integrated density:      33.000005962177
 Requested integration accuracy:   0.10E-06
 d= 0,ls=0.5,diis   110   -156.9071929845 -1.48D-05  3.39D-04  1.44D-05    36.0
                                                     2.19D-06  9.44D-06
 Grid integrated density:      33.000005963964
 Requested integration accuracy:   0.10E-06
 d= 0,ls=0.5,diis   111   -156.9072092841 -1.63D-05  3.52D-04  1.61D-05    36.3
                                                     1.23D-06  1.05D-05
 Grid integrated density:      33.000005965491
 Requested integration accuracy:   0.10E-06
 d= 0,ls=0.5,diis   112   -156.9072268154 -1.75D-05  3.69D-04  1.82D-05    36.6
                                                     1.43D-06  1.23D-05
 Grid integrated density:      33.000005968433
 Requested integration accuracy:   0.10E-06
 d= 0,ls=0.5,diis   113   -156.9072463970 -1.96D-05  3.94D-04  2.01D-05    37.0
                                                     3.42D-06  1.36D-05
 Grid integrated density:      33.000005971732
 Requested integration accuracy:   0.10E-06
 d= 0,ls=0.5,diis   114   -156.9072685136 -2.21D-05  4.15D-04  2.20D-05    37.3
                                                     2.82D-06  1.48D-05
 Grid integrated density:      33.000005976083
 Requested integration accuracy:   0.10E-06
 d= 0,ls=0.5,diis   115   -156.9072930564 -2.45D-05  4.29D-04  2.38D-05    37.6
                                                     1.38D-05  1.58D-05
 Grid integrated density:      33.000005969694
 Requested integration accuracy:   0.10E-06
 d= 0,ls=0.5,diis   116   -156.9073149880 -2.19D-05  4.48D-04  3.23D-05    37.9
                                                     7.89D-06  2.54D-05
 Grid integrated density:      33.000005968101
 Requested integration accuracy:   0.10E-06
 d= 0,ls=0.5,diis   117   -156.9073405089 -2.55D-05  4.77D-04  3.92D-05    38.4
                                                     4.59D-06  3.31D-05
 Grid integrated density:      33.000005969029
 Requested integration accuracy:   0.10E-06
 d= 0,ls=0.5,diis   118   -156.9073698748 -2.94D-05  5.03D-04  4.54D-05    38.7
                                                     4.66D-06  3.97D-05
 Grid integrated density:      33.000005970199
 Requested integration accuracy:   0.10E-06
 d= 0,ls=0.5,diis   119   -156.9074017713 -3.19D-05  5.41D-04  5.29D-05    39.0
                                                     3.18D-06  4.78D-05
 Grid integrated density:      33.000005972788
 Requested integration accuracy:   0.10E-06
 d= 0,ls=0.5,diis   120   -156.9074379471 -3.62D-05  5.69D-04  6.02D-05    39.3
                                                     2.07D-06  5.53D-05
 Grid integrated density:      33.000005977340
 Requested integration accuracy:   0.10E-06
 d= 0,ls=0.5,diis   121   -156.9074785435 -4.06D-05  6.10D-04  6.70D-05    39.7
                                                     3.80D-06  6.20D-05
 Grid integrated density:      33.000005982993
 Requested integration accuracy:   0.10E-06
 d= 0,ls=0.5,diis   122   -156.9075240294 -4.55D-05  6.43D-04  7.42D-05    40.0
                                                     1.12D-06  6.89D-05
 Grid integrated density:      33.000005988499
 Requested integration accuracy:   0.10E-06
 d= 0,ls=0.5,diis   123   -156.9075728638 -4.88D-05  6.84D-04  8.31D-05    40.3
                                                     7.22D-06  7.81D-05
 Grid integrated density:      33.000005989541
 Requested integration accuracy:   0.10E-06
 d= 0,ls=0.5,diis   124   -156.9076213630 -4.85D-05  7.29D-04  1.00D-04    40.6
                                                     2.16D-05  9.76D-05
 Grid integrated density:      33.000005980754
 Requested integration accuracy:   0.10E-06
 d= 0,ls=0.5,diis   125   -156.9076611389 -3.98D-05  7.80D-04  1.38D-04    40.9
                                                     7.72D-06  1.43D-04
 Grid integrated density:      33.000005983135
 Requested integration accuracy:   0.10E-06
 d= 0,ls=0.5,diis   126   -156.9077188755 -5.77D-05  8.30D-04  1.59D-04    41.2
                                                     5.48D-06  1.68D-04
 Grid integrated density:      33.000005993477
 Requested integration accuracy:   0.10E-06
 d= 0,ls=0.5,diis   127   -156.9077917086 -7.28D-05  8.80D-04  1.71D-04    41.5
                                                     3.08D-06  1.79D-04
 Grid integrated density:      33.000006003869
 Requested integration accuracy:   0.10E-06
 d= 0,ls=0.5,diis   128   -156.9078683565 -7.66D-05  9.39D-04  1.87D-04    41.8
                                                     3.64D-06  1.98D-04
 Grid integrated density:      33.000006014350
 Requested integration accuracy:   0.10E-06
 d= 0,ls=0.5,diis   129   -156.9079499507 -8.16D-05  9.92D-04  2.08D-04    42.2
                                                     2.03D-05  2.21D-04
 Grid integrated density:      33.000006010724
 Requested integration accuracy:   0.10E-06
 d= 0,ls=0.5,diis   130   -156.9080083131 -5.84D-05  1.06D-03  2.72D-04    42.5
                                                     1.38D-05  3.01D-04
 Grid integrated density:      33.000006013587
 Requested integration accuracy:   0.10E-06
 d= 0,ls=0.5,diis   131   -156.9080816129 -7.33D-05  1.13D-03  3.28D-04    42.8
                                                     8.19D-06  3.69D-04
 Grid integrated density:      33.000006020945
 Requested integration accuracy:   0.10E-06
 d= 0,ls=0.5,diis   132   -156.9081686303 -8.70D-05  1.22D-03  3.80D-04    43.1
                                                     2.73D-05  4.31D-04
 Grid integrated density:      33.000006016307
 Requested integration accuracy:   0.10E-06
 d= 0,ls=0.5,diis   133   -156.9082203802 -5.17D-05  1.30D-03  4.97D-04    43.4
                                                     1.30D-05  5.75D-04
 Grid integrated density:      33.000006022349
 Requested integration accuracy:   0.10E-06
 d= 0,ls=0.5,diis   134   -156.9083016722 -8.13D-05  1.40D-03  5.89D-04    43.7
                                                     1.12D-05  6.86D-04
 Grid integrated density:      33.000006031051
 Requested integration accuracy:   0.10E-06
 d= 0,ls=0.5,diis   135   -156.9083887824 -8.71D-05  1.48D-03  6.91D-04    44.0
                                                     9.62D-06  8.10D-04
 Grid integrated density:      33.000006053175
 Requested integration accuracy:   0.10E-06
 d= 0,ls=0.5,diis   136   -156.9085203403 -1.32D-04  1.58D-03  7.51D-04    44.3
                                                     1.39D-05  8.82D-04
 Grid integrated density:      33.000006079753
 Requested integration accuracy:   0.10E-06
 d= 0,ls=0.5,diis   137   -156.9086685019 -1.48D-04  1.70D-03  8.08D-04    44.6
                                                     7.20D-05  9.49D-04
 Grid integrated density:      33.000006137787
 Requested integration accuracy:   0.10E-06
 d= 0,ls=0.5,diis   138   -156.9089437921 -2.75D-04  1.78D-03  7.21D-04    45.0
                                                     7.31D-05  8.29D-04
 Grid integrated density:      33.000006199561
 Requested integration accuracy:   0.10E-06
 d= 0,ls=0.5,diis   139   -156.9092178690 -2.74D-04  1.91D-03  6.63D-04    45.3
                                                     7.95D-05  7.48D-04
 Grid integrated density:      33.000006272511
 Requested integration accuracy:   0.10E-06
 d= 0,ls=0.5,diis   140   -156.9095167879 -2.99D-04  2.04D-03  5.78D-04    45.6
                                                     4.16D-05  6.35D-04
 Grid integrated density:      33.000006280563
 Requested integration accuracy:   0.10E-06
 d= 0,ls=0.5,diis   141   -156.9095974047 -8.06D-05  2.15D-03  8.14D-04    45.9
                                                     1.61D-05  9.29D-04
 Grid integrated density:      33.000006306920
 Requested integration accuracy:   0.10E-06
 d= 0,ls=0.5,diis   142   -156.9097354839 -1.38D-04  2.29D-03  9.83D-04    46.2
                                                     2.72D-05  1.14D-03
 Grid integrated density:      33.000006322236
 Requested integration accuracy:   0.10E-06
 d= 0,ls=0.5,diis   143   -156.9098098606 -7.44D-05  2.37D-03  1.26D-03    46.5
                                                     2.88D-05  1.47D-03
 Grid integrated density:      33.000006362406
 Requested integration accuracy:   0.10E-06
 d= 0,ls=0.5,diis   144   -156.9099719020 -1.62D-04  2.49D-03  1.42D-03    46.8
                                                     3.73D-05  1.67D-03
 Grid integrated density:      33.000006399607
 Requested integration accuracy:   0.10E-06
 d= 0,ls=0.5,diis   145   -156.9101157529 -1.44D-04  2.57D-03  1.64D-03    47.1
                                                     7.13D-05  1.94D-03
 Grid integrated density:      33.000006472541
 Requested integration accuracy:   0.10E-06
 d= 0,ls=0.5,diis   146   -156.9104391749 -3.23D-04  2.60D-03  1.61D-03    47.4
                                                     7.93D-05  1.89D-03
 Grid integrated density:      33.000006560947
 Requested integration accuracy:   0.10E-06
 d= 0,ls=0.5,diis   147   -156.9107896062 -3.50D-04  2.63D-03  1.56D-03    47.8
                                                     9.67D-05  1.82D-03
 Grid integrated density:      33.000006669825
 Requested integration accuracy:   0.10E-06
 d= 0,ls=0.5,diis   148   -156.9112195565 -4.30D-04  2.61D-03  1.38D-03    48.1
                                                     1.46D-04  1.61D-03
 Grid integrated density:      33.000006811560
 Requested integration accuracy:   0.10E-06
 d= 0,ls=0.5,diis   149   -156.9117659451 -5.46D-04  2.64D-03  1.03D-03    48.4
                                                     8.31D-05  1.18D-03
 Grid integrated density:      33.000006905838
 Requested integration accuracy:   0.10E-06
 d= 0,ls=0.5,diis   150   -156.9120773948 -3.11D-04  2.48D-03  1.01D-03    48.7
                                                     3.55D-04  1.17D-03
 Grid integrated density:      33.000007194988
 Requested integration accuracy:   0.10E-06
 d= 0,ls=0.5,diis   151   -156.9129089668 -8.32D-04  2.28D-03  2.36D-04    49.0
                                                     3.53D-04  1.95D-04
 Grid integrated density:      33.000007485728
 Requested integration accuracy:   0.10E-06
 d= 0,ls=0.5,diis   152   -156.9132320819 -3.23D-04  2.06D-03  1.69D-04    49.3
                                                     1.92D-04  4.44D-05
 Grid integrated density:      33.000007644454
 Requested integration accuracy:   0.10E-06
 d= 0,ls=0.5,diis   153   -156.9133795620 -1.47D-04  1.97D-03  2.74D-04    49.6
                                                     1.40D-04  1.35D-04
 Grid integrated density:      33.000007762693
 Requested integration accuracy:   0.10E-06
 d= 0,ls=0.5,diis   154   -156.9135168412 -1.37D-04  1.86D-03  3.64D-04    49.9
                                                     1.55D-04  2.19D-04
 Grid integrated density:      33.000007897134
 Requested integration accuracy:   0.10E-06
 d= 0,ls=0.5,diis   155   -156.9135638038 -4.70D-05  1.75D-03  5.71D-04    50.2
                                                     1.78D-04  4.25D-04
 Grid integrated density:      33.000008046389
 Requested integration accuracy:   0.10E-06
 d= 0,ls=0.5,diis   156   -156.9134814042  8.24D-05  1.62D-03  9.46D-04    50.6
                                                     1.93D-04  8.11D-04
 Grid integrated density:      33.000008205105
 Requested integration accuracy:   0.10E-06
 d= 0,ls=0.5,diis   157   -156.9132545504  2.27D-04  1.85D-03  1.51D-03    50.9
                                                     1.55D-04  1.39D-03
 Grid integrated density:      33.000008123066
 Requested integration accuracy:   0.10E-06
 d= 0,ls=0.5,diis   158   -156.9139049280 -6.50D-04  1.63D-03  7.15D-04    51.2
                                                     9.50D-05  5.63D-04
 Grid integrated density:      33.000008206433
 Requested integration accuracy:   0.10E-06
 d= 0,ls=0.5,diis   159   -156.9139172036 -1.23D-05  1.90D-03  9.27D-04    51.5
                                                     1.40D-04  7.86D-04
 Grid integrated density:      33.000008120187
 Requested integration accuracy:   0.10E-06
 d= 0,ls=0.5,diis   160   -156.9144162286 -4.99D-04  1.69D-03  3.70D-04    51.8
                                                     6.75D-05  2.31D-04
 Grid integrated density:      33.000008178218
 Requested integration accuracy:   0.10E-06
 d= 0,ls=0.5,diis   161   -156.9145146516 -9.84D-05  1.82D-03  4.43D-04    52.1
                                                     4.72D-05  3.09D-04
 Grid integrated density:      33.000008160841
 Requested integration accuracy:   0.10E-06
 d= 0,ls=0.5,diis   162   -156.9147701070 -2.55D-04  1.54D-03  2.58D-04    52.4
                                                     2.05D-04  1.38D-04
 Grid integrated density:      33.000008329958
 Requested integration accuracy:   0.10E-06
 d= 0,ls=0.5,diis   163   -156.9146133310  1.57D-04  1.36D-03  7.03D-04    52.7
                                                     1.97D-04  5.81D-04
 Grid integrated density:      33.000008490587
 Requested integration accuracy:   0.10E-06
 d= 0,ls=0.5,diis   164   -156.9143251999  2.88D-04  1.21D-03  1.30D-03    53.1
                                                     1.18D-04  1.19D-03
 Grid integrated density:      33.000008580974
 Requested integration accuracy:   0.10E-06
 d= 0,ls=0.5,diis   165   -156.9142143800  1.11D-04  1.14D-03  1.58D-03    53.4
                                                     7.81D-05  1.48D-03
 Grid integrated density:      33.000008636142
 Requested integration accuracy:   0.10E-06
 d= 0,ls=0.5,diis   166   -156.9142072502  7.13D-06  1.22D-03  1.70D-03    53.7
                                                     5.00D-05  1.60D-03
 Grid integrated density:      33.000008612647
 Requested integration accuracy:   0.10E-06
 d= 0,ls=0.5,diis   167   -156.9145095172 -3.02D-04  1.23D-03  1.35D-03    54.0
                                                     4.96D-05  1.23D-03
 Grid integrated density:      33.000008580577
 Requested integration accuracy:   0.10E-06
 d= 0,ls=0.5,diis   168   -156.9148081772 -2.99D-04  1.14D-03  1.01D-03    54.3
                                                     3.75D-05  8.91D-04
 Grid integrated density:      33.000008614292
 Requested integration accuracy:   0.10E-06
 d= 0,ls=0.5,diis   169   -156.9148542183 -4.60D-05  1.08D-03  1.07D-03    54.6
                                                     5.02D-05  9.55D-04
 Grid integrated density:      33.000008659356
 Requested integration accuracy:   0.10E-06
 d= 0,ls=0.5,diis   170   -156.9148571327 -2.91D-06  1.05D-03  1.17D-03    54.9
                                                     2.94D-05  1.07D-03
 Grid integrated density:      33.000008686713
 Requested integration accuracy:   0.10E-06
 d= 0,ls=0.5,diis   171   -156.9149208609 -6.37D-05  1.21D-03  1.17D-03    55.3
                                                     6.45D-05  1.07D-03
 Grid integrated density:      33.000008647127
 Requested integration accuracy:   0.10E-06
 d= 0,ls=0.5,diis   172   -156.9152178891 -2.97D-04  1.11D-03  8.15D-04    55.6
                                                     1.28D-05  7.16D-04
 Grid integrated density:      33.000008650701
 Requested integration accuracy:   0.10E-06
 d= 0,ls=0.5,diis   173   -156.9153483224 -1.30D-04  1.15D-03  7.21D-04    55.9
                                                     2.08D-05  6.28D-04
 Grid integrated density:      33.000008645339
 Requested integration accuracy:   0.10E-06
 d= 0,ls=0.5,diis   174   -156.9155053995 -1.57D-04  9.84D-04  5.82D-04    56.2
                                                     6.01D-05  4.94D-04
 Grid integrated density:      33.000008700269
 Requested integration accuracy:   0.10E-06
 d= 0,ls=0.5,diis   175   -156.9154885023  1.69D-05  1.04D-03  7.04D-04    56.5
                                                     1.34D-05  6.26D-04
 Grid integrated density:      33.000008707526
 Requested integration accuracy:   0.10E-06
 d= 0,ls=0.5,diis   176   -156.9156126711 -1.24D-04  8.70D-04  5.99D-04    56.8
                                                     7.41D-05  5.19D-04
 Grid integrated density:      33.000008773311
 Requested integration accuracy:   0.10E-06
 d= 0,ls=0.5,diis   177   -156.9155538169  5.89D-05  8.69D-04  7.71D-04    57.1
                                                     2.68D-05  7.02D-04
 Grid integrated density:      33.000008798459
 Requested integration accuracy:   0.10E-06
 d= 0,ls=0.5,diis   178   -156.9156133902 -5.96D-05  8.71D-04  7.48D-04    57.4
                                                     1.46D-05  6.79D-04
 Grid integrated density:      33.000008814278
 Requested integration accuracy:   0.10E-06
 d= 0,ls=0.5,diis   179   -156.9156916569 -7.83D-05  8.46D-04  6.96D-04    57.7
                                                     1.84D-05  6.28D-04
 Grid integrated density:      33.000008835662
 Requested integration accuracy:   0.10E-06
 d= 0,ls=0.5,diis   180   -156.9157499139 -5.83D-05  8.32D-04  6.73D-04    58.1
                                                     1.24D-05  6.08D-04
 Grid integrated density:      33.000008851347
 Requested integration accuracy:   0.10E-06
 d= 0,ls=0.5,diis   181   -156.9158204693 -7.06D-05  8.78D-04  6.28D-04    58.4
                                                     1.88D-05  5.63D-04
 Grid integrated density:      33.000008847165
 Requested integration accuracy:   0.10E-06
 d= 0,ls=0.5,diis   182   -156.9159367747 -1.16D-04  8.08D-04  5.10D-04    58.7
                                                     1.75D-05  4.46D-04
 Grid integrated density:      33.000008869215
 Requested integration accuracy:   0.10E-06
 d= 0,ls=0.5,diis   183   -156.9159815231 -4.47D-05  7.59D-04  5.03D-04    59.0
                                                     3.90D-05  4.41D-04
 Grid integrated density:      33.000008907659
 Requested integration accuracy:   0.10E-06
 d= 0,ls=0.5,diis   184   -156.9159879661 -6.44D-06  8.39D-04  5.52D-04    59.3
                                                     2.61D-05  4.91D-04
 Grid integrated density:      33.000008899669
 Requested integration accuracy:   0.10E-06
 d= 0,ls=0.5,diis   185   -156.9161039950 -1.16D-04  8.57D-04  4.24D-04    59.6
                                                     2.34D-05  3.64D-04
 Grid integrated density:      33.000008893122
 Requested integration accuracy:   0.10E-06
 d= 0,ls=0.5,diis   186   -156.9162053503 -1.01D-04  8.92D-04  3.22D-04    59.9
                                                     2.72D-05  2.65D-04
 Grid integrated density:      33.000008883885
 Requested integration accuracy:   0.10E-06
 d= 0,ls=0.5,diis   187   -156.9163012508 -9.59D-05  8.35D-04  2.30D-04    60.2
                                                     9.55D-06  1.78D-04
 Grid integrated density:      33.000008896062
 Requested integration accuracy:   0.10E-06
 d= 0,ls=0.5,diis   188   -156.9163562574 -5.50D-05  7.23D-04  1.98D-04    60.5
                                                     3.95D-05  1.51D-04
 Grid integrated density:      33.000008938743
 Requested integration accuracy:   0.10E-06
 d= 0,ls=0.5,diis   189   -156.9163617711 -5.51D-06  7.30D-04  2.40D-04    60.8
                                                     2.16D-05  1.95D-04
 Grid integrated density:      33.000008965895
 Requested integration accuracy:   0.10E-06
 d= 0,ls=0.5,diis   190   -156.9163915171 -2.97D-05  6.48D-04  2.39D-04    61.1
                                                     3.57D-05  1.95D-04
 Grid integrated density:      33.000009004410
 Requested integration accuracy:   0.10E-06
 d= 0,ls=0.5,diis   191   -156.9163976380 -6.12D-06  6.37D-04  2.70D-04    61.5
                                                     2.29D-05  2.28D-04
 Grid integrated density:      33.000009029824
 Requested integration accuracy:   0.10E-06
 d= 0,ls=0.5,diis   192   -156.9164213349 -2.37D-05  6.45D-04  2.70D-04    61.8
                                                     9.89D-06  2.29D-04
 Grid integrated density:      33.000009041919
 Requested integration accuracy:   0.10E-06
 d= 0,ls=0.5,diis   193   -156.9164632728 -4.19D-05  6.24D-04  2.40D-04    62.1
                                                     1.07D-05  2.01D-04
 Grid integrated density:      33.000009058061
 Requested integration accuracy:   0.10E-06
 d= 0,ls=0.5,diis   194   -156.9164950496 -3.18D-05  5.59D-04  2.24D-04    62.4
                                                     3.45D-05  1.88D-04
 Grid integrated density:      33.000009091175
 Requested integration accuracy:   0.10E-06
 d= 0,ls=0.5,diis   195   -156.9164954580 -4.08D-07  5.39D-04  2.55D-04    62.7
                                                     2.13D-05  2.21D-04
 Grid integrated density:      33.000009114029
 Requested integration accuracy:   0.10E-06
 d= 0,ls=0.5,diis   196   -156.9165101613 -1.47D-05  5.24D-04  2.60D-04    63.0
                                                     1.76D-05  2.28D-04
 Grid integrated density:      33.000009133595
 Requested integration accuracy:   0.10E-06
 d= 0,ls=0.5,diis   197   -156.9165272310 -1.71D-05  4.99D-04  2.59D-04    63.3
                                                     1.71D-05  2.29D-04
 Grid integrated density:      33.000009152345
 Requested integration accuracy:   0.10E-06
 d= 0,ls=0.5,diis   198   -156.9165427797 -1.55D-05  4.46D-04  2.60D-04    63.6
                                                     3.54D-05  2.31D-04
 Grid integrated density:      33.000009185018
 Requested integration accuracy:   0.10E-06
 d= 0,ls=0.5,diis   199   -156.9165295978  1.32D-05  4.71D-04  3.04D-04    63.9
                                                     1.21D-05  2.76D-04
 Grid integrated density:      33.000009195406
 Requested integration accuracy:   0.10E-06
 d= 0,ls=0.5,diis   200   -156.9165559498 -2.64D-05  4.51D-04  2.83D-04    64.2
                                                     9.63D-06  2.57D-04
 Grid integrated density:      33.000009207240
 Requested integration accuracy:   0.10E-06
 d= 0,ls=0.5,diis   201   -156.9165755716 -1.96D-05  4.04D-04  2.73D-04    64.5
                                                     2.64D-05  2.48D-04
 Grid integrated density:      33.000009230496
 Requested integration accuracy:   0.10E-06
 d= 0,ls=0.5,diis   202   -156.9165704722  5.10D-06  6.43D-04  3.00D-04    64.9
                                                     7.47D-05  2.77D-04
 Grid integrated density:      33.000009177102
 Requested integration accuracy:   0.10E-06
 d= 0,ls=0.5,diis   203   -156.9166873345 -1.17D-04  4.63D-04  1.40D-04    65.2
                                                     2.37D-05  1.18D-04
 Grid integrated density:      33.000009198400
 Requested integration accuracy:   0.10E-06
 d= 0,ls=0.5,diis   204   -156.9166909954 -3.66D-06  4.10D-04  1.57D-04    65.5
                                                     3.13D-05  1.36D-04
 Grid integrated density:      33.000009230333
 Requested integration accuracy:   0.10E-06
 d= 0,ls=0.5,diis   205   -156.9166790491  1.19D-05  3.50D-04  1.95D-04    65.8
                                                     3.48D-05  1.76D-04
 Grid integrated density:      33.000009263109
 Requested integration accuracy:   0.10E-06
 d= 0,ls=0.5,diis   206   -156.9166602693  1.88D-05  4.98D-04  2.39D-04    66.1
                                                     4.10D-05  2.21D-04
 Grid integrated density:      33.000009236444
 Requested integration accuracy:   0.10E-06
 d= 0,ls=0.5,diis   207   -156.9167289314 -6.87D-05  4.65D-04  1.48D-04    66.4
                                                     1.23D-05  1.28D-04
 Grid integrated density:      33.000009232437
 Requested integration accuracy:   0.10E-06
 d= 0,ls=0.5,diis   208   -156.9167588380 -2.99D-05  4.39D-04  1.19D-04    66.7
                                                     6.33D-06  1.01D-04
 Grid integrated density:      33.000009236551
 Requested integration accuracy:   0.10E-06
 d= 0,ls=0.5,diis   209   -156.9167786301 -1.98D-05  4.51D-04  1.05D-04    67.0
                                                     6.32D-06  8.79D-05
 Grid integrated density:      33.000009238612
 Requested integration accuracy:   0.10E-06
 d= 0,ls=0.5,diis   210   -156.9168003485 -2.17D-05  4.14D-04  8.80D-05    67.4
                                                     1.00D-05  7.17D-05
 Grid integrated density:      33.000009250477
 Requested integration accuracy:   0.10E-06
 d= 0,ls=0.5,diis   211   -156.9168111812 -1.08D-05  3.85D-04  8.66D-05    67.7
                                                     1.34D-05  7.08D-05
 Grid integrated density:      33.000009267201
 Requested integration accuracy:   0.10E-06
 d= 0,ls=0.5,diis   212   -156.9168174307 -6.25D-06  3.67D-04  9.10D-05    68.0
                                                     1.11D-05  7.52D-05
 Grid integrated density:      33.000009281716
 Requested integration accuracy:   0.10E-06
 d= 0,ls=0.5,diis   213   -156.9168250530 -7.62D-06  3.46D-04  9.22D-05    68.3
                                                     1.42D-05  7.65D-05
 Grid integrated density:      33.000009297900
 Requested integration accuracy:   0.10E-06
 d= 0,ls=0.5,diis   214   -156.9168300122 -4.96D-06  3.26D-04  9.65D-05    68.6
                                                     1.51D-05  8.09D-05
 Grid integrated density:      33.000009314469
 Requested integration accuracy:   0.10E-06
 d= 0,ls=0.5,diis   215   -156.9168334925 -3.48D-06  3.13D-04  1.02D-04    68.9
                                                     1.18D-05  8.67D-05
 Grid integrated density:      33.000009327830
 Requested integration accuracy:   0.10E-06
 d= 0,ls=0.5,diis   216   -156.9168388992 -5.41D-06  2.82D-04  1.04D-04    69.2
                                                     1.88D-05  8.86D-05
 Grid integrated density:      33.000009346405
 Requested integration accuracy:   0.10E-06
 d= 0,ls=0.5,diis   217   -156.9168370733  1.83D-06  2.71D-04  1.15D-04    69.5
                                                     1.43D-05  1.01D-04
 Grid integrated density:      33.000009360538
 Requested integration accuracy:   0.10E-06
 d= 0,ls=0.5,diis   218   -156.9168385108 -1.44D-06  3.30D-04  1.21D-04    69.8
                                                     2.14D-05  1.07D-04
 Grid integrated density:      33.000009349102
 Requested integration accuracy:   0.10E-06
 d= 0,ls=0.5,diis   219   -156.9168673925 -2.89D-05  4.13D-04  8.37D-05    70.1
                                                     3.65D-05  7.08D-05
 Grid integrated density:      33.000009327118
 Requested integration accuracy:   0.10E-06
 d= 0,ls=0.5,diis   220   -156.9168999725 -3.26D-05  3.57D-04  4.38D-05    70.4
                                                     1.12D-05  3.26D-05
 Grid integrated density:      33.000009329986
 Requested integration accuracy:   0.10E-06
 d= 0,ls=0.5,diis   221   -156.9169110339 -1.11D-05  2.64D-04  3.73D-05    70.7
                                                     4.16D-05  2.77D-05
 Grid integrated density:      33.000009367075
 Requested integration accuracy:   0.10E-06
 d= 0,ls=0.5,diis   222   -156.9168973014  1.37D-05  2.28D-04  6.80D-05    71.1
                                                     3.24D-05  5.92D-05
 Grid integrated density:      33.000009396246
 Requested integration accuracy:   0.10E-06
 d= 0,ls=0.5,diis   223   -156.9168854561  1.18D-05  2.12D-04  9.28D-05    71.4
                                                     2.08D-05  8.49D-05
 Grid integrated density:      33.000009414859
 Requested integration accuracy:   0.10E-06
 d= 0,ls=0.5,diis   224   -156.9168810173  4.44D-06  1.98D-04  1.05D-04    71.7
                                                     1.82D-05  9.72D-05
 Grid integrated density:      33.000009430941
 Requested integration accuracy:   0.10E-06
 d= 0,ls=0.5,diis   225   -156.9168767813  4.24D-06  2.05D-04  1.17D-04    72.0
                                                     8.07D-06  1.09D-04
 Grid integrated density:      33.000009436555
 Requested integration accuracy:   0.10E-06
 d= 0,ls=0.5,diis   226   -156.9168828240 -6.04D-06  3.70D-04  1.12D-04    72.3
                                                     5.93D-05  1.04D-04
 Grid integrated density:      33.000009394677
 Requested integration accuracy:   0.10E-06
 d= 0,ls=0.5,diis   227   -156.9169318038 -4.90D-05  3.19D-04  4.21D-05    72.6
                                                     1.77D-05  3.41D-05
 Grid integrated density:      33.000009386605
 Requested integration accuracy:   0.10E-06
 d= 0,ls=0.5,diis   228   -156.9169448673 -1.31D-05  2.46D-04  2.94D-05    72.9
                                                     2.02D-05  2.25D-05
 Grid integrated density:      33.000009405218
 Requested integration accuracy:   0.10E-06
 d= 0,ls=0.5,diis   229   -156.9169425332  2.33D-06  2.25D-04  3.99D-05    73.2
                                                     1.69D-05  3.33D-05
 Grid integrated density:      33.000009422206
 Requested integration accuracy:   0.10E-06
 d= 0,ls=0.5,diis   230   -156.9169402800  2.25D-06  2.26D-04  4.94D-05    73.5
                                                     5.93D-06  4.29D-05
 Grid integrated density:      33.000009428038
 Requested integration accuracy:   0.10E-06
 d= 0,ls=0.5,diis   231   -156.9169456359 -5.36D-06  2.25D-04  4.60D-05    73.8
                                                     4.60D-06  3.95D-05
 Grid integrated density:      33.000009434803
 Requested integration accuracy:   0.10E-06
 d= 0,ls=0.5,diis   232   -156.9169498348 -4.20D-06  2.27D-04  4.45D-05    74.1
                                                     2.07D-06  3.79D-05
 Grid integrated density:      33.000009438864
 Requested integration accuracy:   0.10E-06
 d= 0,ls=0.5,diis   233   -156.9169555318 -5.70D-06  2.92D-04  4.02D-05    74.4
                                                     2.56D-05  3.40D-05
 Grid integrated density:      33.000009423176
 Requested integration accuracy:   0.10E-06
 d= 0,ls=0.5,diis   234   -156.9169717768 -1.62D-05  2.58D-04  1.96D-05    74.7
                                                     5.29D-06  1.47D-05
 Grid integrated density:      33.000009426717
 Requested integration accuracy:   0.10E-06
 d= 0,ls=0.5,diis   235   -156.9169767077 -4.93D-06  2.06D-04  1.72D-05    75.0
                                                     1.96D-05  1.26D-05
 Grid integrated density:      33.000009444946
 Requested integration accuracy:   0.10E-06
 d= 0,ls=0.5,diis   236   -156.9169748511  1.86D-06  1.84D-04  2.46D-05    75.3
                                                     1.85D-05  2.02D-05
 Grid integrated density:      33.000009462257
 Requested integration accuracy:   0.10E-06
 d= 0,ls=0.5,diis   237   -156.9169725439  2.31D-06  1.81D-04  3.21D-05    75.6
                                                     9.22D-06  2.77D-05
 Grid integrated density:      33.000009472004
 Requested integration accuracy:   0.10E-06
 d= 0,ls=0.5,diis   238   -156.9169738075 -1.26D-06  1.61D-04  3.34D-05    75.9
                                                     1.35D-05  2.92D-05
 Grid integrated density:      33.000009484745
 Requested integration accuracy:   0.10E-06
 d= 0,ls=0.5,diis   239   -156.9169725250  1.28D-06  1.75D-04  3.84D-05    76.2
                                                     6.06D-06  3.46D-05
 Grid integrated density:      33.000009489718
 Requested integration accuracy:   0.10E-06
 d= 0,ls=0.5,diis   240   -156.9169753891 -2.86D-06  1.47D-04  3.70D-05    76.5
                                                     1.13D-05  3.36D-05
 Grid integrated density:      33.000009500543
 Requested integration accuracy:   0.10E-06
 d= 0,ls=0.5,diis   241   -156.9169743552  1.03D-06  1.43D-04  4.11D-05    76.8
                                                     7.55D-06  3.80D-05
 Grid integrated density:      33.000009507997
 Requested integration accuracy:   0.10E-06
 d= 0,ls=0.5,diis   242   -156.9169750615 -7.06D-07  1.51D-04  4.23D-05    77.1
                                                     3.22D-06  3.94D-05
 Grid integrated density:      33.000009511032
 Requested integration accuracy:   0.10E-06
 d= 0,ls=0.5,diis   243   -156.9169783725 -3.31D-06  2.34D-04  3.96D-05    77.4
                                                     3.48D-05  3.68D-05
 Grid integrated density:      33.000009486921
 Requested integration accuracy:   0.10E-06
 d= 0,ls=0.5,diis   244   -156.9169959235 -1.76D-05  2.52D-04  1.54D-05    77.7
                                                     2.17D-05  1.25D-05
 Grid integrated density:      33.000009473173
 Requested integration accuracy:   0.10E-06
 d= 0,ls=0.5,diis   245   -156.9170040969 -8.17D-06  2.13D-04  6.42D-06    78.0
                                                     7.16D-06  4.05D-06
 Grid integrated density:      33.000009477990
 Requested integration accuracy:   0.10E-06
 d= 0,ls=0.5,diis   246   -156.9170064779 -2.38D-06  1.66D-04  6.16D-06    78.3
                                                     1.93D-05  3.97D-06
 Grid integrated density:      33.000009495925
 Requested integration accuracy:   0.10E-06
 d= 0,ls=0.5,diis   247   -156.9170049639  1.51D-06  1.59D-04  1.15D-05    78.6
                                                     8.98D-06  9.22D-06
 Grid integrated density:      33.000009506025
 Requested integration accuracy:   0.10E-06
 d= 0,ls=0.5,diis   248   -156.9170054704 -5.06D-07  1.50D-04  1.31D-05    78.9
                                                     7.63D-06  1.09D-05
 Grid integrated density:      33.000009514257
 Requested integration accuracy:   0.10E-06
 d= 0,ls=0.5,diis   249   -156.9170062303 -7.60D-07  1.48D-04  1.41D-05    79.2
                                                     4.83D-06  1.19D-05
 Grid integrated density:      33.000009519956
 Requested integration accuracy:   0.10E-06
 d= 0,ls=0.5,diis   250   -156.9170076831 -1.45D-06  1.38D-04  1.39D-05    79.5
                                                     5.76D-06  1.17D-05
 Grid integrated density:      33.000009526663
 Requested integration accuracy:   0.10E-06
 d= 0,ls=0.5,diis   251   -156.9170085430 -8.60D-07  1.36D-04  1.46D-05    79.8
                                                     3.88D-06  1.23D-05
 Grid integrated density:      33.000009531623
 Requested integration accuracy:   0.10E-06
 d= 0,ls=0.5,diis   252   -156.9170099187 -1.38D-06  1.37D-04  1.43D-05    80.1
                                                     1.93D-06  1.20D-05
 Grid integrated density:      33.000009534885
 Requested integration accuracy:   0.10E-06
 d= 0,ls=0.5,diis   253   -156.9170117412 -1.82D-06  1.31D-04  1.32D-05    80.4
                                                     2.56D-06  1.10D-05
 Grid integrated density:      33.000009538155
 Requested integration accuracy:   0.10E-06
 d= 0,ls=0.5,diis   254   -156.9170133907 -1.65D-06  1.19D-04  1.24D-05    80.7
                                                     7.74D-06  1.01D-05
 Grid integrated density:      33.000009545756
 Requested integration accuracy:   0.10E-06
 d= 0,ls=0.5,diis   255   -156.9170134204 -2.97D-08  1.33D-04  1.39D-05    81.0
                                                     3.51D-06  1.17D-05
 Grid integrated density:      33.000009545903
 Requested integration accuracy:   0.10E-06
 d= 0,ls=0.5,diis   256   -156.9170160914 -2.67D-06  1.29D-04  1.12D-05    81.3
                                                     1.25D-06  9.11D-06
 Grid integrated density:      33.000009548473
 Requested integration accuracy:   0.10E-06
 d= 0,ls=0.5,diis   257   -156.9170176750 -1.58D-06  9.68D-05  1.02D-05    81.6
                                                     1.55D-05  8.29D-06
 Grid integrated density:      33.000009562101
 Requested integration accuracy:   0.10E-06
 d= 0,ls=0.5,diis   258   -156.9170150601  2.61D-06  9.79D-05  1.56D-05    81.9
                                                     6.92D-06  1.39D-05
 Grid integrated density:      33.000009568536
 Requested integration accuracy:   0.10E-06
 d= 0,ls=0.5,diis   259   -156.9170149469  1.13D-07  1.15D-04  1.68D-05    82.2
                                                     6.82D-06  1.52D-05
 Grid integrated density:      33.000009565271
 Requested integration accuracy:   0.10E-06
 d= 0,ls=0.5,diis   260   -156.9170184816 -3.53D-06  1.05D-04  1.24D-05    82.4
                                                     1.78D-06  1.07D-05
 Grid integrated density:      33.000009567827
 Requested integration accuracy:   0.10E-06
 d= 0,ls=0.5,diis   261   -156.9170195125 -1.03D-06  1.12D-04  1.20D-05    82.7
                                                     2.63D-06  1.04D-05
 Grid integrated density:      33.000009567628
 Requested integration accuracy:   0.10E-06
 d= 0,ls=0.5,diis   262   -156.9170214855 -1.97D-06  1.09D-04  1.00D-05    83.0
                                                     1.06D-06  8.51D-06
 Grid integrated density:      33.000009569323
 Requested integration accuracy:   0.10E-06
 d= 0,ls=0.5,diis   263   -156.9170226996 -1.21D-06  1.07D-04  9.21D-06    83.3
                                                     4.58D-07  7.86D-06
 Grid integrated density:      33.000009570888
 Requested integration accuracy:   0.10E-06
 d= 0,ls=0.5,diis   264   -156.9170239334 -1.23D-06  9.74D-05  8.33D-06    83.6
                                                     3.16D-06  7.09D-06
 Grid integrated density:      33.000009574723
 Requested integration accuracy:   0.10E-06
 d= 0,ls=0.5,diis   265   -156.9170244318 -4.98D-07  9.36D-05  8.55D-06    83.9
                                                     3.57D-06  7.39D-06
 Grid integrated density:      33.000009578924
 Requested integration accuracy:   0.10E-06
 d= 0,ls=0.5,diis   266   -156.9170248001 -3.68D-07  8.82D-05  8.88D-06    84.2
                                                     4.07D-06  7.79D-06
 Grid integrated density:      33.000009583258
 Requested integration accuracy:   0.10E-06
 d= 0,ls=0.5,diis   267   -156.9170250326 -2.32D-07  8.39D-05  9.36D-06    84.5
                                                     3.79D-06  8.34D-06
 Grid integrated density:      33.000009587259
 Requested integration accuracy:   0.10E-06
 d= 0,ls=0.5,diis   268   -156.9170252973 -2.65D-07  8.06D-05  9.74D-06    84.8
                                                     3.07D-06  8.73D-06
 Grid integrated density:      33.000009590527
 Requested integration accuracy:   0.10E-06
 d= 0,ls=0.5,diis   269   -156.9170257075 -4.10D-07  7.03D-05  9.82D-06    85.1
                                                     6.05D-06  8.85D-06
 Grid integrated density:      33.000009596205
 Requested integration accuracy:   0.10E-06
 d= 0,ls=0.5,diis   270   -156.9170251958  5.12D-07  7.81D-05  1.13D-05    85.3
                                                     1.99D-06  1.04D-05
 Grid integrated density:      33.000009596685
 Requested integration accuracy:   0.10E-06
 d= 0,ls=0.5,diis   271   -156.9170264293 -1.23D-06  7.70D-05  9.88D-06    85.6
                                                     7.82D-07  9.04D-06
 Grid integrated density:      33.000009597869
 Requested integration accuracy:   0.10E-06
 d= 0,ls=0.5,diis   272   -156.9170272678 -8.38D-07  8.12D-05  9.20D-06    85.9
                                                     1.93D-06  8.43D-06
 Grid integrated density:      33.000009597720
 Requested integration accuracy:   0.10E-06
 d= 0,ls=0.5,diis   273   -156.9170284778 -1.21D-06  8.40D-05  7.97D-06    86.2
                                                     2.13D-06  7.26D-06
 Grid integrated density:      33.000009597383
 Requested integration accuracy:   0.10E-06
 d= 0,ls=0.5,diis   274   -156.9170296735 -1.20D-06  7.71D-05  6.78D-06    86.5
                                                     1.44D-06  6.11D-06
 Grid integrated density:      33.000009599239
 Requested integration accuracy:   0.10E-06
 d= 0,ls=0.5,diis   275   -156.9170302562 -5.83D-07  7.85D-05  6.51D-06    86.8
                                                     9.71D-07  5.91D-06
 Grid integrated density:      33.000009600841
 Requested integration accuracy:   0.10E-06
[...]
     6     -1.393044   1 C  s                21      1.393023   2 C  s         
    32     -1.326747   3 H  s                65      1.326760   6 H  s         
     5      1.274864   1 C  s                20     -1.275011   2 C  s         
     4     -0.910781   1 C  s                19      0.910923   2 C  s         
    31      0.874435   3 H  s                64     -0.874500   6 H  s         
 
 Vector   68  Occ=0.000000D+00  E= 2.466033D+00
              MO Center=  2.5D-02,  3.0D-02, -1.7D-02, r^2= 8.4D+00
   Bfn.  Coefficient  Atom+Function         Bfn.  Coefficient  Atom+Function  
  ----- ------------  ---------------      ----- ------------  ---------------
    74     -1.107616   9 H  s                83      1.109705  12 H  s         
    71      1.074774   8 H  s                80     -1.077716  11 H  s         
    73      0.805381   9 H  s                82     -0.806895  12 H  s         
    70     -0.754771   8 H  s                79      0.756792  11 H  s         
    75      0.676176   9 H  s                84     -0.677328  12 H  s         
 
 Vector   69  Occ=0.000000D+00  E= 2.475213D+00
              MO Center=  1.5D-01,  2.2D-01, -8.9D-02, r^2= 7.2D+00
   Bfn.  Coefficient  Atom+Function         Bfn.  Coefficient  Atom+Function  
  ----- ------------  ---------------      ----- ------------  ---------------
    68      1.234067   7 H  s                77      1.235295  10 H  s         
    74     -0.902051   9 H  s                83     -0.902500  12 H  s         
    67     -0.866154   7 H  s                76     -0.867073  10 H  s         
    69     -0.781535   7 H  s                78     -0.782035  10 H  s         
    73      0.665464   9 H  s                82      0.665724  12 H  s         
 
 Vector   70  Occ=0.000000D+00  E= 2.487472D+00
              MO Center= -1.7D-01, -2.4D-01,  1.1D-01, r^2= 8.3D+00
   Bfn.  Coefficient  Atom+Function         Bfn.  Coefficient  Atom+Function  
  ----- ------------  ---------------      ----- ------------  ---------------
    71      1.286220   8 H  s                80      1.278622  11 H  s         
    70     -0.909524   8 H  s                79     -0.904384  11 H  s         
    74     -0.876754   9 H  s                83     -0.877958  12 H  s         
    72     -0.613316   8 H  s                73      0.612741   9 H  s         
    82      0.613322  12 H  s                81     -0.608368  11 H  s         
 
 Vector   71  Occ=0.000000D+00  E= 2.491493D+00
              MO Center= -7.7D-02, -1.1D-01,  4.1D-02, r^2= 7.1D+00
   Bfn.  Coefficient  Atom+Function         Bfn.  Coefficient  Atom+Function  
  ----- ------------  ---------------      ----- ------------  ---------------
    68      1.224011   7 H  s                77     -1.225021  10 H  s         
    67     -0.904514   7 H  s                76      0.905250  10 H  s         
    80      0.772018  11 H  s                71     -0.764628   8 H  s         
    69     -0.662983   7 H  s                78      0.663659  10 H  s         
    79     -0.542823  11 H  s                70      0.537560   8 H  s         
 
 Vector   72  Occ=0.000000D+00  E= 2.603497D+00
              MO Center= -9.3D-06,  5.2D-05, -3.1D-05, r^2= 3.1D+00
   Bfn.  Coefficient  Atom+Function         Bfn.  Coefficient  Atom+Function  
  ----- ------------  ---------------      ----- ------------  ---------------
    15      3.129015   1 C  pz               30     -3.129739   2 C  pz        
    13      1.917752   1 C  px               28     -1.916390   2 C  px        
     5     -1.508921   1 C  s                20     -1.508908   2 C  s         
     4      1.301867   1 C  s                19      1.301863   2 C  s         
    32      1.292378   3 H  s                65      1.292319   6 H  s         
 
 Vector   73  Occ=0.000000D+00  E= 2.701823D+00
              MO Center=  1.3D-04,  1.8D-04, -6.8D-05, r^2= 2.6D+00
   Bfn.  Coefficient  Atom+Function         Bfn.  Coefficient  Atom+Function  
  ----- ------------  ---------------      ----- ------------  ---------------
     5      2.958477   1 C  s                20      2.958591   2 C  s         
     4     -2.376208   1 C  s                19     -2.376278   2 C  s         
     6     -2.343842   1 C  s                21     -2.344003   2 C  s         
    15      1.364979   1 C  pz               30     -1.364643   2 C  pz        
    13      1.338595   1 C  px               28     -1.339188   2 C  px        
 
 Vector   74  Occ=0.000000D+00  E= 2.882285D+00
              MO Center= -1.0D-03, -1.6D-03,  5.3D-04, r^2= 3.4D+00
   Bfn.  Coefficient  Atom+Function         Bfn.  Coefficient  Atom+Function  
  ----- ------------  ---------------      ----- ------------  ---------------
     6      4.856565   1 C  s                21     -4.856219   2 C  s         
     5     -3.612004   1 C  s                20      3.611700   2 C  s         
    39      2.496418   4 C  s                54     -2.497139   5 C  s         
     4      2.366236   1 C  s                19     -2.366021   2 C  s         
    13      2.028786   1 C  px               28      2.026521   2 C  px        
 
 Vector   75  Occ=0.000000D+00  E= 2.966844D+00
              MO Center= -1.5D-03, -4.3D-03, -1.1D-03, r^2= 5.6D+00
   Bfn.  Coefficient  Atom+Function         Bfn.  Coefficient  Atom+Function  
  ----- ------------  ---------------      ----- ------------  ---------------
    39      5.446244   4 C  s                54      5.454173   5 C  s         
    38     -3.643579   4 C  s                53     -3.648375   5 C  s         
    15     -2.979996   1 C  pz               30      2.981240   2 C  pz        
    37      2.462481   4 C  s                52      2.465679   5 C  s         
     6     -2.127321   1 C  s                21     -2.136259   2 C  s         
 
 Vector   76  Occ=0.000000D+00  E= 2.976953D+00
              MO Center= -2.1D-03, -7.1D-04,  3.2D-03, r^2= 5.0D+00
   Bfn.  Coefficient  Atom+Function         Bfn.  Coefficient  Atom+Function  
  ----- ------------  ---------------      ----- ------------  ---------------
     6      5.221735   1 C  s                21     -5.218348   2 C  s         
    39     -5.187006   4 C  s                54      5.178368   5 C  s         
    38      3.177048   4 C  s                53     -3.171240   5 C  s         
     5     -2.710969   1 C  s                20      2.708638   2 C  s         
    37     -2.126969   4 C  s                52      2.123039   5 C  s         
 
 Vector   77  Occ=0.000000D+00  E= 1.170918D+01
              MO Center=  7.9D-06, -1.2D-05, -2.0D-05, r^2= 1.1D+00
   Bfn.  Coefficient  Atom+Function         Bfn.  Coefficient  Atom+Function  
  ----- ------------  ---------------      ----- ------------  ---------------
     4     -2.210994   1 C  s                19     -2.211005   2 C  s         
     3      2.196601   1 C  s                18      2.196611   2 C  s         
     5      1.800286   1 C  s                20      1.800295   2 C  s         
     2     -1.159057   1 C  s                17     -1.159062   2 C  s         
     6     -1.042555   1 C  s                21     -1.042556   2 C  s         
 
 Vector   78  Occ=0.000000D+00  E= 1.188690D+01
              MO Center=  6.9D-04, -1.4D-03, -2.3D-03, r^2= 4.3D+00
   Bfn.  Coefficient  Atom+Function         Bfn.  Coefficient  Atom+Function  
  ----- ------------  ---------------      ----- ------------  ---------------
    37     -2.418891   4 C  s                52      2.422374   5 C  s         
    36      2.324543   4 C  s                51     -2.327861   5 C  s         
    38      2.172240   4 C  s                53     -2.175406   5 C  s         
    39     -1.912545   4 C  s                54      1.915223   5 C  s         
    35     -1.215087   4 C  s                50      1.216821   5 C  s         
 
 Vector   79  Occ=0.000000D+00  E= 1.190124D+01
              MO Center= -7.1D-04,  1.4D-03,  2.4D-03, r^2= 4.0D+00
   Bfn.  Coefficient  Atom+Function         Bfn.  Coefficient  Atom+Function  
  ----- ------------  ---------------      ----- ------------  ---------------
    37     -2.337759   4 C  s                52     -2.334124   5 C  s         
    36      2.228139   4 C  s                51      2.224645   5 C  s         
    38      2.120826   4 C  s                53      2.117561   5 C  s         
    39     -1.781658   4 C  s                54     -1.778785   5 C  s         
    35     -1.164060   4 C  s                50     -1.162234   5 C  s         
 
 Vector   80  Occ=0.000000D+00  E= 1.213112D+01
              MO Center=  7.0D-07,  6.2D-06, -6.8D-07, r^2= 8.0D-01
   Bfn.  Coefficient  Atom+Function         Bfn.  Coefficient  Atom+Function  
  ----- ------------  ---------------      ----- ------------  ---------------
     6      2.887053   1 C  s                21     -2.887048   2 C  s         
     4      2.522555   1 C  s                19     -2.522544   2 C  s         
     5     -2.485542   1 C  s                20      2.485533   2 C  s         
     3     -2.351440   1 C  s                18      2.351430   2 C  s         
     2      1.219667   1 C  s                17     -1.219661   2 C  s         
 
 Vector   81  Occ=0.000000D+00  E= 6.266345D+01
              MO Center=  1.0D-05, -1.2D-05, -2.5D-05, r^2= 8.6D-01
   Bfn.  Coefficient  Atom+Function         Bfn.  Coefficient  Atom+Function  
  ----- ------------  ---------------      ----- ------------  ---------------
     2      1.971396   1 C  s                17      1.971402   2 C  s         
     3     -1.488021   1 C  s                18     -1.488025   2 C  s         
     1     -1.171157   1 C  s                16     -1.171161   2 C  s         
     4      0.971171   1 C  s                19      0.971173   2 C  s         
     5     -0.750387   1 C  s                20     -0.750389   2 C  s         
 
 Vector   82  Occ=0.000000D+00  E= 6.283435D+01
              MO Center=  6.3D-04, -1.3D-03, -2.1D-03, r^2= 4.0D+00
   Bfn.  Coefficient  Atom+Function         Bfn.  Coefficient  Atom+Function  
  ----- ------------  ---------------      ----- ------------  ---------------
    35      2.084364   4 C  s                50     -2.087084   5 C  s         
    36     -1.591875   4 C  s                51      1.593954   5 C  s         
    34     -1.231329   4 C  s                49      1.232935   5 C  s         
    37      1.076633   4 C  s                52     -1.078052   5 C  s         
    38     -0.916963   4 C  s                53      0.918188   5 C  s         
 
 Vector   83  Occ=0.000000D+00  E= 6.285130D+01
              MO Center= -6.4D-04,  1.3D-03,  2.2D-03, r^2= 3.6D+00
   Bfn.  Coefficient  Atom+Function         Bfn.  Coefficient  Atom+Function  
  ----- ------------  ---------------      ----- ------------  ---------------
    35      1.987693   4 C  s                50      1.984807   5 C  s         
    36     -1.519190   4 C  s                51     -1.516985   5 C  s         
    34     -1.173774   4 C  s                49     -1.172069   5 C  s         
    37      1.036221   4 C  s                52      1.034730   5 C  s         
    38     -0.892392   4 C  s                53     -0.891123   5 C  s         
 
 Vector   84  Occ=0.000000D+00  E= 6.308033D+01
              MO Center=  1.4D-06,  4.9D-06, -1.0D-06, r^2= 5.3D-01
   Bfn.  Coefficient  Atom+Function         Bfn.  Coefficient  Atom+Function  
  ----- ------------  ---------------      ----- ------------  ---------------
     2      2.099156   1 C  s                17     -2.099151   2 C  s         
     3     -1.619975   1 C  s                18      1.619971   2 C  s         
     6      1.242856   1 C  s                21     -1.242855   2 C  s         
     1     -1.233723   1 C  s                16      1.233720   2 C  s         
     4      1.134828   1 C  s                19     -1.134825   2 C  s         
 

   alpha - beta orbital overlaps 
   ----------------------------- 


   alpha      1      2      3      4      5      6      7      8      9     10
    beta      1      2      3      4      5      6      7      8      9     10
 overlap   1.000  1.000  1.000  1.000  1.000  1.000  1.000  1.000  0.999  1.000


   alpha     11     12     13     14     15     16     17     18     19     20
    beta     11     12     13     14     15     16     19     17     18     20
 overlap   0.999  0.999  1.000  1.000  1.000  0.999  0.886  0.994  0.895  0.983


   alpha     21     22     23     24     25     26     27     28     29     30
    beta     21     23     22     24     25     26     27     28     29     30
 overlap   0.974  0.920  0.960  0.959  0.988  1.000  1.000  0.998  0.917  0.916


   alpha     31     32     33     34     35     36     37     38     39     40
    beta     31     32     33     34     35     36     37     38     39     40
 overlap   0.999  0.999  0.995  0.995  0.995  0.998  0.995  0.997  0.993  0.951


   alpha     41     42     43     44     45     46     47     48     49     50
    beta     41     42     43     44     45     46     47     48     49     50
 overlap   0.951  0.972  0.977  0.986  0.998  0.998  0.999  0.999  1.000  1.000


   alpha     51     52     53     54     55     56     57     58     59     60
    beta     51     52     53     54     55     56     57     58     59     60
 overlap   0.945  0.945  1.000  0.996  1.000  0.908  0.901  1.000  0.996  0.991


   alpha     61     62     63     64     65     66     67     68     69     70
    beta     61     62     63     64     65     66     67     68     69     70
 overlap   0.999  1.000  1.000  1.000  1.000  1.000  0.998  0.994  0.996  0.996


   alpha     71     72     73     74     75     76     77     78     79     80
    beta     71     72     73     74     75     76     77     78     79     80
 overlap   0.995  0.999  0.999  0.999  1.000  0.999  1.000  1.000  1.000  1.000


   alpha     81     82     83     84
    beta     81     82     83     84
 overlap   1.000  1.000  1.000  1.000

     --------------------------
     Expectation value of S2:  
     --------------------------
      <S2> =      0.7515 (Exact =     0.7500)
 

 center of mass
 --------------
 x =   0.00000044 y =   0.00000052 z =  -0.00000027

 moments of inertia (a.u.)
 ------------------
         463.164504446705          77.157266899112          95.597304222035
          77.157266899112         391.092584184259        -189.767364780644
          95.597304222035        -189.767364780644         207.770903436451
 
     Multipole analysis of the density
     ---------------------------------
 
     L   x y z        total         alpha         beta         nuclear
     -   - - -        -----         -----         ----         -------
     0   0 0 0     -1.000000    -17.000000    -16.000000     32.000000
 
     1   1 0 0      0.221399      0.248496     -0.027097     -0.000000
     1   0 1 0      0.316682      0.355313     -0.038631     -0.000000
     1   0 0 1     -0.125950     -0.141333      0.015383     -0.000000
 
     2   2 0 0    -26.969824    -40.084654    -34.947307     48.062137
     2   1 1 0      1.104348     25.286639     23.796913    -47.979203
     2   1 0 1      3.400992     31.426981     28.420742    -56.446731
     2   0 2 0    -29.881603    -63.804609    -56.518327     90.441334
     2   0 1 1     -4.565217    -62.314575    -58.390323    116.139681
     2   0 0 2    -32.885467   -123.988585   -114.638442    205.741560
 

 Task  times  cpu:      154.9s     wall:      162.6s
 
 
                                NWChem Input Module
                                -------------------
 
 
 Summary of allocated global arrays
-----------------------------------
  No active global arrays



                         GA Statistics for process    0
                         ------------------------------

       create   destroy   get      put      acc     scatter   gather  read&inc
calls: 1.07e+04 1.07e+04 2.33e+06 6.85e+04 1.62e+06    0        0     1.51e+04 
number of processes/call 6.82e+00 6.65e+01 5.64e+00 0.00e+00 0.00e+00
bytes total:             2.34e+09 2.42e+08 1.31e+09 0.00e+00 0.00e+00 1.20e+05
bytes remote:            1.91e+09 1.40e+08 1.11e+09 0.00e+00 0.00e+00 0.00e+00
Max memory consumed for GA by this process: 459552 bytes
 
 
 
                                     CITATION
                                     --------
                Please cite the following reference when publishing
                           results obtained with NWChem:
 
          E. Apr, E. J. Bylaska, W. A. de Jong, N. Govind, K. Kowalski,
       T. P. Straatsma, M. Valiev, H. J. J. van Dam, Y. Alexeev, J. Anchell,
       V. Anisimov, F. W. Aquino, R. Atta-Fynn, J. Autschbach, N. P. Bauman,
     J. C. Becca, D. E. Bernholdt, K. Bhaskaran-Nair, S. Bogatko, P. Borowski,
        J. Boschen, J. Brabec, A. Bruner, E. Caut, Y. Chen, G. N. Chuev,
      C. J. Cramer, J. Daily, M. J. O. Deegan, T. H. Dunning Jr., M. Dupuis,
   K. G. Dyall, G. I. Fann, S. A. Fischer, A. Fonari, H. Frchtl, L. Gagliardi,
      J. Garza, N. Gawande, S. Ghosh, K. Glaesemann, A. W. Gtz, J. Hammond,
       V. Helms, E. D. Hermes, K. Hirao, S. Hirata, M. Jacquelin, L. Jensen,
   B. G. Johnson, H. Jnsson, R. A. Kendall, M. Klemm, R. Kobayashi, V. Konkov,
      S. Krishnamoorthy, M. Krishnan, Z. Lin, R. D. Lins, R. J. Littlefield,
      A. J. Logsdail, K. Lopata, W. Ma, A. V. Marenich, J. Martin del Campo,
   D. Mejia-Rodriguez, J. E. Moore, J. M. Mullin, T. Nakajima, D. R. Nascimento,
    J. A. Nichols, P. J. Nichols, J. Nieplocha, A. Otero-de-la-Roza, B. Palmer,
    A. Panyala, T. Pirojsirikul, B. Peng, R. Peverati, J. Pittner, L. Pollack,
   R. M. Richard, P. Sadayappan, G. C. Schatz, W. A. Shelton, D. W. Silverstein,
   D. M. A. Smith, T. A. Soares, D. Song, M. Swart, H. L. Taylor, G. S. Thomas,
            V. Tipparaju, D. G. Truhlar, K. Tsemekhman, T. Van Voorhis,
     . Vzquez-Mayagoitia, P. Verma, O. Villa, A. Vishnu, K. D. Vogiatzis,
        D. Wang, J. H. Weare, M. J. Williamson, T. L. Windus, K. Woliski,
        A. T. Wong, Q. Wu, C. Yang, Q. Yu, M. Zacharias, Z. Zhang, Y. Zhao,
                                and R. J. Harrison
                        "NWChem: Past, present, and future
                         J. Chem. Phys. 152, 184102 (2020)
                               doi:10.1063/5.0004997
 
                                      AUTHORS
                                      -------
     E. Apra, E. J. Bylaska, N. Govind, K. Kowalski, M. Valiev, W. A. de Jong,
      T. P. Straatsma, H. J. J. van Dam, D. Wang, T. L. Windus, N. P. Bauman,
       A. Panyala, J. Hammond, J. Autschbach, K. Bhaskaran-Nair, J. Brabec,
    K. Lopata, S. A. Fischer, S. Krishnamoorthy, M. Jacquelin, W. Ma, M. Klemm,
       O. Villa, Y. Chen, V. Anisimov, F. Aquino, S. Hirata, M. T. Hackler,
           Eric Hermes, L. Jensen, J. E. Moore, J. C. Becca, V. Konjkov,
            D. Mejia-Rodriguez, T. Risthaus, M. Malagoli, A. Marenich,
   A. Otero-de-la-Roza, J. Mullin, P. Nichols, R. Peverati, J. Pittner, Y. Zhao,
        P.-D. Fan, A. Fonari, M. J. Williamson, R. J. Harrison, J. R. Rehr,
      M. Dupuis, D. Silverstein, D. M. A. Smith, J. Nieplocha, V. Tipparaju,
      M. Krishnan, B. E. Van Kuiken, A. Vazquez-Mayagoitia, M. Swart, Q. Wu,
   T. Van Voorhis, A. A. Auer, M. Nooijen, L. D. Crosby, E. Brown, G. Cisneros,
     G. I. Fann, H. Fruchtl, J. Garza, K. Hirao, R. A. Kendall, J. A. Nichols,
       K. Tsemekhman, K. Wolinski, J. Anchell, D. E. Bernholdt, P. Borowski,
       T. Clark, D. Clerc, H. Dachsel, M. J. O. Deegan, K. Dyall, D. Elwood,
      E. Glendening, M. Gutowski, A. C. Hess, J. Jaffe, B. G. Johnson, J. Ju,
        R. Kobayashi, R. Kutteh, Z. Lin, R. Littlefield, X. Long, B. Meng,
      T. Nakajima, S. Niu, L. Pollack, M. Rosing, K. Glaesemann, G. Sandrone,
      M. Stave, H. Taylor, G. Thomas, J. H. van Lenthe, A. T. Wong, Z. Zhang.

 Total times  cpu:      154.9s     wall:      162.7s
