 
             Northwest Computational Chemistry Package (NWChem) 7.0.0
             --------------------------------------------------------
 
 
                    Environmental Molecular Sciences Laboratory
                       Pacific Northwest National Laboratory
                                Richland, WA 99352
 
                              Copyright (c) 1994-2020
                       Pacific Northwest National Laboratory
                            Battelle Memorial Institute
 
             NWChem is an open-source computational chemistry package
                        distributed under the terms of the
                      Educational Community License (ECL) 2.0
             A copy of the license is included with this distribution
                              in the LICENSE.TXT file
 
                                  ACKNOWLEDGMENT
                                  --------------

            This software and its documentation were developed at the
            EMSL at Pacific Northwest National Laboratory, a multiprogram
            national laboratory, operated for the U.S. Department of Energy
            by Battelle under Contract Number DE-AC05-76RL01830. Support
            for this work was provided by the Department of Energy Office
            of Biological and Environmental Research, Office of Basic
            Energy Sciences, and the Office of Advanced Scientific Computing.


                                NWChem Input Module
                                -------------------
 
 
 Summary of "ao basis" -> "" (spherical)
 ------------------------------------------------------------------------------
       Tag                 Description            Shells   Functions and Types
 ---------------- ------------------------------  ------  ---------------------
 *                        ahlrichs_vtz                on all atoms 



 Scaling coordinates for geometry "geometry" by  1.889725989
 (inverse scale =  0.529177249)

 
 
                             Geometry "geometry" -> ""
                             -------------------------
 
 Output coordinates in angstroms (scale by  1.889725989 to convert to a.u.)
 
  No.       Tag          Charge          X              Y              Z
 ---- ---------------- ---------- -------------- -------------- --------------
    1 C                    6.0000    -0.58840700     0.68908573    -0.28219464
    2 C                    6.0000     0.23448237    -0.17826608    -0.90215080
    3 H                    1.0000    -1.15509039     1.38648161    -0.91000124
    4 C                    6.0000    -0.83301387     0.82390645     1.19649085
    5 H                    1.0000     0.28660177    -0.13315885    -1.99617214
    6 C                    6.0000     1.11055643    -1.22446609    -0.26774312
    7 H                    1.0000    -0.24823983     0.11011743     1.79122587
    8 H                    1.0000    -1.89805859     0.66613611     1.43556382
    9 H                    1.0000    -0.57998161     1.83862330     1.54675577
   10 H                    1.0000     0.85183963    -2.23122935    -0.63631517
   11 H                    1.0000     1.03088578    -1.23926352     0.82706518
   12 H                    1.0000     2.17033559    -1.05926679    -0.52453570
 
      Atomic Mass 
      ----------- 
 
      C                 12.000000
      H                  1.007825
 

 Effective nuclear repulsion energy (a.u.)     116.8912401626

            Nuclear Dipole moment (a.u.) 
            ----------------------------
        X                 Y               Z
 ---------------- ---------------- ----------------
     0.0000000000    -0.0000000000     0.0000000000
 
 
            XYZ format geometry
            -------------------
    12
 geometry
 C                    -0.58840700     0.68908573    -0.28219464
 C                     0.23448237    -0.17826608    -0.90215080
 H                    -1.15509039     1.38648161    -0.91000124
 C                    -0.83301387     0.82390645     1.19649085
 H                     0.28660177    -0.13315885    -1.99617214
 C                     1.11055643    -1.22446609    -0.26774312
 H                    -0.24823983     0.11011743     1.79122587
 H                    -1.89805859     0.66613611     1.43556382
 H                    -0.57998161     1.83862330     1.54675577
 H                     0.85183963    -2.23122935    -0.63631517
 H                     1.03088578    -1.23926352     0.82706518
 H                     2.17033559    -1.05926679    -0.52453570
 
 ==============================================================================
                                internuclear distances
 ------------------------------------------------------------------------------
       center one      |      center two      | atomic units |  angstroms
 ------------------------------------------------------------------------------
    2 C                |   1 C                |     2.54503  |     1.34677
    3 H                |   1 C                |     2.07150  |     1.09619
    4 C                |   1 C                |     2.84372  |     1.50483
    5 H                |   2 C                |     2.07150  |     1.09619
    6 C                |   2 C                |     2.84372  |     1.50483
    7 H                |   4 C                |     2.07454  |     1.09780
    8 H                |   4 C                |     2.08416  |     1.10289
    9 H                |   4 C                |     2.08416  |     1.10289
   10 H                |   6 C                |     2.08415  |     1.10288
   11 H                |   6 C                |     2.07455  |     1.09780
   12 H                |   6 C                |     2.08416  |     1.10289
 ------------------------------------------------------------------------------
                         number of included internuclear distances:         11
 ==============================================================================



 ==============================================================================
                                 internuclear angles
 ------------------------------------------------------------------------------
        center 1       |       center 2       |       center 3       |  degrees
 ------------------------------------------------------------------------------
    2 C                |   1 C                |   3 H                |   117.51
    2 C                |   1 C                |   4 C                |   127.54
    3 H                |   1 C                |   4 C                |   114.94
    1 C                |   2 C                |   5 H                |   117.51
    1 C                |   2 C                |   6 C                |   127.55
    5 H                |   2 C                |   6 C                |   114.94
    1 C                |   4 C                |   7 H                |   112.80
    1 C                |   4 C                |   8 H                |   110.93
    1 C                |   4 C                |   9 H                |   110.93
    7 H                |   4 C                |   8 H                |   107.70
    7 H                |   4 C                |   9 H                |   107.70
    8 H                |   4 C                |   9 H                |   106.52
    2 C                |   6 C                |  10 H                |   110.93
    2 C                |   6 C                |  11 H                |   112.80
    2 C                |   6 C                |  12 H                |   110.92
   10 H                |   6 C                |  11 H                |   107.69
   10 H                |   6 C                |  12 H                |   106.52
   11 H                |   6 C                |  12 H                |   107.70
 ------------------------------------------------------------------------------
                            number of included internuclear angles:         18
 ==============================================================================



                              Aldehyde and Ketone set
                              -----------------------
 
                                 NWChem DFT Module
                                 -----------------
 
 
                              Aldehyde and Ketone set
 
 
                      Basis "ao basis" -> "ao basis" (spherical)
                      -----
  C (Carbon)
  ----------
            Exponent  Coefficients 
       -------------- ---------------------------------------------------------
  1 S  8.50603840E+03  0.000534
  1 S  1.27573290E+03  0.004125
  1 S  2.90311870E+02  0.021171
  1 S  8.20562000E+01  0.082418
  1 S  2.64796410E+01  0.240129
 
  2 S  9.24145850E+00  1.000000
 
  3 S  3.36435300E+00  1.000000
 
  4 S  8.71741640E-01  1.000000
 
  5 S  3.63523520E-01  1.000000
 
  6 S  1.28731350E-01  1.000000
 
  7 P  3.47094960E+01  0.005330
  7 P  7.95908830E+00  0.035866
  7 P  2.37869720E+00  0.142003
  7 P  8.15400650E-01  0.342031
 
  8 P  2.89537850E-01  1.000000
 
  9 P  1.00847540E-01  1.000000
 
  H (Hydrogen)
  ------------
            Exponent  Coefficients 
       -------------- ---------------------------------------------------------
  1 S  3.40613410E+01  0.006025
  1 S  5.12357460E+00  0.045021
  1 S  1.16466260E+00  0.201897
 
  2 S  3.27230410E-01  1.000000
 
  3 S  1.03072410E-01  1.000000
 


 Summary of "ao basis" -> "ao basis" (spherical)
 ------------------------------------------------------------------------------
       Tag                 Description            Shells   Functions and Types
 ---------------- ------------------------------  ------  ---------------------
 C                        ahlrichs vtz               9       15   6s3p
 H                        ahlrichs vtz               3        3   3s




 Summary of "ao basis" -> "ao basis" (spherical)
 ------------------------------------------------------------------------------
       Tag                 Description            Shells   Functions and Types
 ---------------- ------------------------------  ------  ---------------------
 C                        ahlrichs vtz               9       15   6s3p
 H                        ahlrichs vtz               3        3   3s


  Caching 1-el integrals 
 
            General Information
            -------------------
          SCF calculation type: DFT
          Wavefunction type:  spin polarized.
          No. of atoms     :    12
          No. of electrons :    33
           Alpha electrons :    17
            Beta electrons :    16
          Charge           :    -1
          Spin multiplicity:     2
          Use of symmetry is: off; symmetry adaption is: off
          Maximum number of iterations: 999
          This is a Direct SCF calculation.
          AO basis - number of functions:    84
                     number of shells:    60
          Convergence on energy requested:  1.00D-08
          Convergence on density requested:  1.00D-07
          Convergence on gradient requested:  1.00D-06
 
              XC Information
              --------------
                        PBE96 Method XC Functional
          PerdewBurkeErnzerhof Exchange Functional  1.000          
            Perdew 1991 LDA Correlation Functional  1.000 local    
           PerdewBurkeErnz. Correlation Functional  1.000 non-local
 
             Grid Information
             ----------------
          Grid used for XC integration:  fine      
          Radial quadrature: Mura-Knowles        
          Angular quadrature: Lebedev. 
          Tag              B.-S. Rad. Rad. Pts. Rad. Cut. Ang. Pts.
          ---              ---------- --------- --------- ---------
          C                   0.70       70          11.0       590
          H                   0.35       60          13.0       590
          Grid pruning is: on 
          Number of quadrature shells:   760
          Spatial weights used:  Erf1
 
          Convergence Information
          -----------------------
          Convergence aids based upon iterative change in 
          total energy or number of iterations. 
          Levelshifting, if invoked, occurs when the 
          HOMO/LUMO gap drops below (HL_TOL):  1.00D-02
          DIIS, if invoked, will attempt to extrapolate 
          using up to (NFOCK): 10 stored Fock matrices.

                    Damping( 0%)  Levelshifting(0.5)       DIIS
                  --------------- ------------------- ---------------
          dE  on:    start            ASAP                start   
          dE off:    2 iters        999 iters           999 iters 

 
      Screening Tolerance Information
      -------------------------------
          Density screening/tol_rho:  1.00D-12
          AO Gaussian exp screening on grid/accAOfunc:  18
          CD Gaussian exp screening on grid/accCDfunc:  20
          XC Gaussian exp screening on grid/accXCfunc:  20
          Schwarz screening/accCoul:  1.00D-12

      Dispersion Parameters
      ---------------------

           DFT-D3BJ Model   
          s6 scale factor  :        1.000000000000
          s8 scale factor  :        0.787500000000
          a1 parameter     :        0.428900000000
          a2 parameter     :        4.440700000000
              vdW contrib  :       -0.007625582458


 Forcing the number of linearly dependent vectors to be  0
 
      Superposition of Atomic Density Guess
      -------------------------------------
 
 Sum of atomic energies:        -154.68305411
   Time after variat. SCF:      0.2
   Time prior to 1st pass:      0.2

 Grid_pts file          = ./17_cisMeCHCHMe.gridpts.00
 Record size in doubles =  12289        No. of grid_pts per rec  =   3070
 Max. records in memory =     12        Max. recs in file   =  67550051

 Grid integrated density:      31.999970016069
 Requested integration accuracy:   0.10E-06

           Memory utilization after 1st SCF pass: 
           Heap Space remaining (MW):        0.00                 218
          Stack Space remaining (MW):      288.36           288357188

   convergence    iter        energy       DeltaE   RMS-Dens  Diis-err    time
 ---------------- ----- ----------------- --------- --------- ---------  ------
 d= 0,ls=0.0,diis     1   -157.3941067022 -2.74D+02  1.86D-02  1.18D+01     0.5
                                                     1.54D-02  1.04D+01
 Grid integrated density:      32.999991845397
 Requested integration accuracy:   0.10E-06
 d= 0,ls=0.0,diis     2   -156.4884955906  9.06D-01  1.69D-01  7.34D-01     0.8
                                                     1.69D-01  6.63D-01
 Grid integrated density:      32.999960063535
 Requested integration accuracy:   0.10E-06
 d= 0,ls=0.0,diis     3   -154.9409158921  1.55D+00  1.70D-01  2.72D+00     1.1
                                                     1.68D-01  2.41D+00
 Grid integrated density:      32.999987874278
 Requested integration accuracy:   0.10E-06
 d= 0,ls=0.0,diis     4   -156.8572045052 -1.92D+00  1.27D-01  9.07D-02     1.4
                                                     3.77D-03  8.54D-02
 Grid integrated density:      32.999974258325
 Requested integration accuracy:   0.10E-06
 d= 0,ls=0.0,diis     5   -156.8623048176 -5.10D-03  1.88D-02  8.70D-02     1.7
                                                     1.82D-03  9.84D-02
 Grid integrated density:      32.999974047054
 Requested integration accuracy:   0.10E-06
 d= 0,ls=0.5,diis     6   -156.9076627516 -4.54D-02  1.31D-03  1.30D-02     2.0
                                                     6.72D-04  1.59D-02
 Grid integrated density:      32.999973700552
 Requested integration accuracy:   0.10E-06
 d= 0,ls=0.5,diis     7   -156.9128502896 -5.19D-03  1.74D-03  6.32D-03     2.3
                                                     6.87D-04  7.77D-03
 Grid integrated density:      32.999973460018
 Requested integration accuracy:   0.10E-06
 d= 0,ls=0.5,diis     8   -156.9165818729 -3.73D-03  1.57D-03  1.56D-03     2.6
                                                     4.14D-04  1.87D-03
 Grid integrated density:      32.999973235115
 Requested integration accuracy:   0.10E-06
 d= 0,ls=0.5,diis     9   -156.9176381625 -1.06D-03  1.54D-03  3.65D-04     3.0
                                                     2.40D-04  3.92D-04
 Grid integrated density:      32.999973079878
 Requested integration accuracy:   0.10E-06
 d= 0,ls=0.5,diis    10   -156.9179421900 -3.04D-04  1.49D-03  1.08D-04     3.3
                                                     1.39D-04  8.25D-05
 Grid integrated density:      32.999972948216
 Requested integration accuracy:   0.10E-06
 d= 0,ls=0.5,diis    11   -156.9180600092 -1.18D-04  1.43D-03  4.85D-05     3.6
                                                     7.78D-05  1.74D-05
 Grid integrated density:      32.999972844839
 Requested integration accuracy:   0.10E-06
 d= 0,ls=0.5,diis    12   -156.9181285530 -6.85D-05  1.36D-03  3.34D-05     3.9
                                                     4.37D-05  4.86D-06
 Grid integrated density:      32.999972763428
 Requested integration accuracy:   0.10E-06
 d= 0,ls=0.5,diis    13   -156.9181813025 -5.27D-05  1.29D-03  2.68D-05     4.2
                                                     3.66D-05  1.85D-06
 Grid integrated density:      32.999972685198
 Requested integration accuracy:   0.10E-06
 d= 0,ls=0.5,diis    14   -156.9182233958 -4.21D-05  1.22D-03  2.53D-05     4.5
                                                     2.81D-05  2.46D-06
 Grid integrated density:      32.999972621302
 Requested integration accuracy:   0.10E-06
 d= 0,ls=0.5,diis    15   -156.9182602764 -3.69D-05  1.16D-03  2.43D-05     4.8
                                                     3.50D-05  3.60D-06
 Grid integrated density:      32.999972557381
 Requested integration accuracy:   0.10E-06
 d= 0,ls=0.5,diis    16   -156.9182904659 -3.02D-05  1.05D-03  2.59D-05     5.1
                                                     1.70D-05  6.34D-06
 Grid integrated density:      32.999972518351
 Requested integration accuracy:   0.10E-06
 d= 0,ls=0.5,diis    17   -156.9183202308 -2.98D-05  1.01D-03  2.28D-05     5.5
                                                     3.30D-05  5.31D-06
 Grid integrated density:      32.999972467655
 Requested integration accuracy:   0.10E-06
 d= 0,ls=0.5,diis    18   -156.9183409528 -2.07D-05  9.27D-04  2.68D-05     5.8
                                                     2.19D-05  1.04D-05
 Grid integrated density:      32.999972428606
 Requested integration accuracy:   0.10E-06
 d= 0,ls=0.5,diis    19   -156.9183613365 -2.04D-05  8.50D-04  2.77D-05     6.1
                                                     1.09D-05  1.27D-05
 Grid integrated density:      32.999972406408
 Requested integration accuracy:   0.10E-06
 d= 0,ls=0.5,diis    20   -156.9183827989 -2.15D-05  8.10D-04  2.42D-05     6.4
                                                     1.45D-05  1.10D-05
 Grid integrated density:      32.999972384852
 Requested integration accuracy:   0.10E-06
 d= 0,ls=0.5,diis    21   -156.9184000834 -1.73D-05  7.62D-04  2.36D-05     6.7
                                                     2.31D-05  1.16D-05
 Grid integrated density:      32.999972352495
 Requested integration accuracy:   0.10E-06
 d= 0,ls=0.5,diis    22   -156.9184120669 -1.20D-05  7.26D-04  2.64D-05     7.0
                                                     1.89D-05  1.48D-05
 Grid integrated density:      32.999972329715
 Requested integration accuracy:   0.10E-06
 d= 0,ls=0.5,diis    23   -156.9184249570 -1.29D-05  6.57D-04  2.69D-05     7.3
                                                     8.39D-06  1.64D-05
 Grid integrated density:      32.999972316635
 Requested integration accuracy:   0.10E-06
 d= 0,ls=0.5,diis    24   -156.9184387511 -1.38D-05  6.30D-04  2.45D-05     7.7
                                                     1.53D-05  1.52D-05
 Grid integrated density:      32.999972302715
 Requested integration accuracy:   0.10E-06
 d= 0,ls=0.5,diis    25   -156.9184478834 -9.13D-06  5.79D-04  2.57D-05     8.0
                                                     8.56D-06  1.68D-05
 Grid integrated density:      32.999972292663
 Requested integration accuracy:   0.10E-06
 d= 0,ls=0.5,diis    26   -156.9184580500 -1.02D-05  5.48D-04  2.44D-05     8.3
                                                     9.51D-06  1.62D-05
 Grid integrated density:      32.999972279932
 Requested integration accuracy:   0.10E-06
 d= 0,ls=0.5,diis    27   -156.9184676356 -9.59D-06  5.25D-04  2.27D-05     8.6
                                                     1.28D-05  1.53D-05
 Grid integrated density:      32.999972267551
 Requested integration accuracy:   0.10E-06
 d= 0,ls=0.5,diis    28   -156.9184736352 -6.00D-06  4.81D-04  2.44D-05     8.9
                                                     7.59D-06  1.74D-05
 Grid integrated density:      32.999972255531
 Requested integration accuracy:   0.10E-06
 d= 0,ls=0.5,diis    29   -156.9184817202 -8.08D-06  4.59D-04  2.20D-05     9.2
                                                     5.45D-06  1.57D-05
 Grid integrated density:      32.999972251484
 Requested integration accuracy:   0.10E-06
 d= 0,ls=0.5,diis    30   -156.9184888726 -7.15D-06  4.39D-04  2.06D-05     9.6
                                                     7.56D-06  1.50D-05
 Grid integrated density:      32.999972243146
 Requested integration accuracy:   0.10E-06
 d= 0,ls=0.5,diis    31   -156.9184943409 -5.47D-06  4.14D-04  2.04D-05     9.9
                                                     4.29D-06  1.54D-05
 Grid integrated density:      32.999972241710
 Requested integration accuracy:   0.10E-06
 d= 0,ls=0.5,diis    32   -156.9185013013 -6.96D-06  3.78D-04  1.81D-05    10.2
                                                     3.43D-06  1.38D-05
 Grid integrated density:      32.999972237155
 Requested integration accuracy:   0.10E-06
 d= 0,ls=0.5,diis    33   -156.9185073724 -6.07D-06  3.59D-04  1.58D-05    10.6
                                                     4.05D-06  1.20D-05
 Grid integrated density:      32.999972234079
 Requested integration accuracy:   0.10E-06
 d= 0,ls=0.5,diis    34   -156.9185119142 -4.54D-06  3.25D-04  1.50D-05    10.9
                                                     2.85D-06  1.15D-05
 Grid integrated density:      32.999972236343
 Requested integration accuracy:   0.10E-06
 d= 0,ls=0.5,diis    35   -156.9185175858 -5.67D-06  3.08D-04  1.23D-05    11.2
                                                     1.60D-06  9.21D-06
 Grid integrated density:      32.999972236756
 Requested integration accuracy:   0.10E-06
 d= 0,ls=0.5,diis    36   -156.9185220756 -4.49D-06  2.93D-04  1.06D-05    11.5
                                                     1.77D-06  7.85D-06
 Grid integrated density:      32.999972236495
 Requested integration accuracy:   0.10E-06
 d= 0,ls=0.5,diis    37   -156.9185256132 -3.54D-06  2.86D-04  9.85D-06    11.8
                                                     8.12D-06  7.26D-06
 Grid integrated density:      32.999972231234
 Requested integration accuracy:   0.10E-06
 d= 0,ls=0.5,diis    38   -156.9185270676 -1.45D-06  2.65D-04  1.10D-05    12.1
                                                     6.85D-06  8.37D-06
 Grid integrated density:      32.999972225908
 Requested integration accuracy:   0.10E-06
 d= 0,ls=0.5,diis    39   -156.9185285596 -1.49D-06  2.39D-04  1.16D-05    12.5
                                                     1.85D-06  9.09D-06
 Grid integrated density:      32.999972224483
 Requested integration accuracy:   0.10E-06
 d= 0,ls=0.5,diis    40   -156.9185313571 -2.80D-06  2.24D-04  1.05D-05    12.8
                                                     3.52D-06  8.13D-06
 Grid integrated density:      32.999972226011
 Requested integration accuracy:   0.10E-06
 d= 0,ls=0.5,diis    41   -156.9185347451 -3.39D-06  2.12D-04  8.63D-06    13.1
                                                     4.74D-06  6.54D-06
 Grid integrated density:      32.999972229192
 Requested integration accuracy:   0.10E-06
 d= 0,ls=0.5,diis    42   -156.9185380448 -3.30D-06  2.08D-04  6.61D-06    13.4
                                                     1.77D-06  4.79D-06
 Grid integrated density:      32.999972229627
 Requested integration accuracy:   0.10E-06
 d= 0,ls=0.5,diis    43   -156.9185402990 -2.25D-06  2.00D-04  5.65D-06    13.7
                                                     3.16D-06  4.03D-06
 Grid integrated density:      32.999972230719
 Requested integration accuracy:   0.10E-06
 d= 0,ls=0.5,diis    44   -156.9185425794 -2.28D-06  1.90D-04  4.49D-06    14.0
                                                     2.24D-06  3.11D-06
 Grid integrated density:      32.999972232320
 Requested integration accuracy:   0.10E-06
 d= 0,ls=0.5,diis    45   -156.9185444919 -1.91D-06  1.85D-04  3.62D-06    14.3
                                                     1.04D-06  2.42D-06
 Grid integrated density:      32.999972232664
 Requested integration accuracy:   0.10E-06
 d= 0,ls=0.5,diis    46   -156.9185458748 -1.38D-06  1.78D-04  3.25D-06    14.6
                                                     3.50D-06  2.20D-06
 Grid integrated density:      32.999972229985
 Requested integration accuracy:   0.10E-06
 d= 0,ls=0.5,diis    47   -156.9185467651 -8.90D-07  1.69D-04  3.26D-06    14.9
                                                     3.95D-06  2.29D-06
 Grid integrated density:      32.999972227215
 Requested integration accuracy:   0.10E-06
 d= 0,ls=0.5,diis    48   -156.9185474685 -7.03D-07  1.60D-04  3.37D-06    15.2
                                                     4.35D-06  2.48D-06
 Grid integrated density:      32.999972224045
 Requested integration accuracy:   0.10E-06
 d= 0,ls=0.5,diis    49   -156.9185480088 -5.40D-07  1.49D-04  3.56D-06    15.5
                                                     3.50D-06  2.72D-06
 Grid integrated density:      32.999972221524
 Requested integration accuracy:   0.10E-06
 d= 0,ls=0.5,diis    50   -156.9185485779 -5.69D-07  1.34D-04  3.62D-06    15.9
                                                     1.02D-06  2.83D-06
 Grid integrated density:      32.999972221610
 Requested integration accuracy:   0.10E-06
 d= 0,ls=0.5,diis    51   -156.9185495811 -1.00D-06  1.30D-04  3.13D-06    16.2
                                                     1.52D-06  2.44D-06
 Grid integrated density:      32.999972220598
 Requested integration accuracy:   0.10E-06
 d= 0,ls=0.5,diis    52   -156.9185502438 -6.63D-07  1.25D-04  2.95D-06    16.5
                                                     1.74D-06  2.31D-06
 Grid integrated density:      32.999972219597
 Requested integration accuracy:   0.10E-06
 d= 0,ls=0.5,diis    53   -156.9185508080 -5.64D-07  1.18D-04  2.84D-06    16.8
                                                     1.09D-06  2.26D-06
 Grid integrated density:      32.999972218488
 Requested integration accuracy:   0.10E-06
 d= 0,ls=0.5,diis    54   -156.9185514376 -6.30D-07  1.09D-04  2.61D-06    17.1
                                                     1.48D-06  2.09D-06
 Grid integrated density:      32.999972219850
 Requested integration accuracy:   0.10E-06
 d= 0,ls=0.5,diis    55   -156.9185521845 -7.47D-07  1.06D-04  2.21D-06    17.4
                                                     8.00D-07  1.76D-06
 Grid integrated density:      32.999972220384
 Requested integration accuracy:   0.10E-06
 d= 0,ls=0.5,diis    56   -156.9185527921 -6.08D-07  1.01D-04  1.94D-06    17.7
                                                     4.71D-07  1.54D-06
 Grid integrated density:      32.999972220233
 Requested integration accuracy:   0.10E-06
 d= 0,ls=0.5,diis    57   -156.9185532720 -4.80D-07  9.52D-05  1.76D-06    18.1
                                                     5.65D-07  1.40D-06
 Grid integrated density:      32.999972220148
 Requested integration accuracy:   0.10E-06
 d= 0,ls=0.5,diis    58   -156.9185536830 -4.11D-07  9.10D-05  1.62D-06    18.4
                                                     9.19D-07  1.28D-06
 Grid integrated density:      32.999972219765
 Requested integration accuracy:   0.10E-06
 d= 0,ls=0.5,diis    59   -156.9185540075 -3.25D-07  8.47D-05  1.54D-06    18.7
                                                     3.52D-07  1.23D-06
 Grid integrated density:      32.999972219970
 Requested integration accuracy:   0.10E-06
 d= 0,ls=0.5,diis    60   -156.9185543514 -3.44D-07  8.11D-05  1.42D-06    19.0
                                                     1.67D-06  1.13D-06
 Grid integrated density:      32.999972218969
 Requested integration accuracy:   0.10E-06
 d= 0,ls=0.5,diis    61   -156.9185545400 -1.89D-07  7.63D-05  1.43D-06    19.3
                                                     1.35D-06  1.14D-06
 Grid integrated density:      32.999972218000
 Requested integration accuracy:   0.10E-06
 d= 0,ls=0.5,diis    62   -156.9185547364 -1.96D-07  7.27D-05  1.41D-06    19.6
                                                     1.28D-06  1.13D-06
 Grid integrated density:      32.999972216882
 Requested integration accuracy:   0.10E-06
 d= 0,ls=0.5,diis    63   -156.9185549113 -1.75D-07  6.84D-05  1.39D-06    19.9
                                                     1.01D-06  1.14D-06
 Grid integrated density:      32.999972216109
 Requested integration accuracy:   0.10E-06
 d= 0,ls=0.5,diis    64   -156.9185550857 -1.74D-07  6.09D-05  1.35D-06    20.2
                                                     1.23D-06  1.13D-06
 Grid integrated density:      32.999972217077
 Requested integration accuracy:   0.10E-06
 d= 0,ls=0.5,diis    65   -156.9185554231 -3.37D-07  5.90D-05  1.13D-06    20.6
                                                     1.38D-06  9.24D-07
 Grid integrated density:      32.999972218212
 Requested integration accuracy:   0.10E-06
 d= 0,ls=0.5,diis    66   -156.9185557341 -3.11D-07  5.71D-05  9.27D-07    20.9
                                                     9.50D-07  7.47D-07
 Grid integrated density:      32.999972218971
 Requested integration accuracy:   0.10E-06
 d= 0,ls=0.5,diis    67   -156.9185559715 -2.37D-07  5.46D-05  7.91D-07    21.2
                                                     7.43D-07  6.33D-07
 Grid integrated density:      32.999972219680
 Requested integration accuracy:   0.10E-06
 d= 0,ls=0.5,diis    68   -156.9185561663 -1.95D-07  5.25D-05  6.90D-07    21.5
                                                     4.21D-07  5.46D-07
 Grid integrated density:      32.999972220123
 Requested integration accuracy:   0.10E-06
 d= 0,ls=0.5,diis    69   -156.9185563302 -1.64D-07  5.02D-05  6.13D-07    21.8
                                                     2.05D-07  4.86D-07
 Grid integrated density:      32.999972220229
 Requested integration accuracy:   0.10E-06
 d= 0,ls=0.5,diis    70   -156.9185564619 -1.32D-07  4.73D-05  5.60D-07    22.1
                                                     3.75D-07  4.45D-07
 Grid integrated density:      32.999972220641
 Requested integration accuracy:   0.10E-06
 d= 0,ls=0.5,diis    71   -156.9185566032 -1.41D-07  4.45D-05  4.84D-07    22.4
                                                     6.24D-07  3.83D-07
 Grid integrated density:      32.999972221292
 Requested integration accuracy:   0.10E-06
 d= 0,ls=0.5,diis    72   -156.9185567430 -1.40D-07  4.33D-05  4.01D-07    22.7
                                                     2.55D-07  3.12D-07
 Grid integrated density:      32.999972221532
 Requested integration accuracy:   0.10E-06
 d= 0,ls=0.5,diis    73   -156.9185568467 -1.04D-07  3.98D-05  3.57D-07    23.0
                                                     1.23D-06  2.79D-07
 Grid integrated density:      32.999972222612
 Requested integration accuracy:   0.10E-06
 d= 0,ls=0.5,diis    74   -156.9185569853 -1.39D-07  3.89D-05  2.65D-07    23.3
                                                     6.68D-07  1.99D-07
 Grid integrated density:      32.999972223275
 Requested integration accuracy:   0.10E-06
 d= 0,ls=0.5,diis    75   -156.9185570832 -9.78D-08  3.75D-05  2.14D-07    23.7
                                                     4.35D-07  1.57D-07
 Grid integrated density:      32.999972223747
 Requested integration accuracy:   0.10E-06
 d= 0,ls=0.5,diis    76   -156.9185571637 -8.06D-08  3.58D-05  1.78D-07    24.0
                                                     3.31D-07  1.28D-07
 Grid integrated density:      32.999972224174
 Requested integration accuracy:   0.10E-06
 d= 0,ls=0.5,diis    77   -156.9185572331 -6.93D-08  3.44D-05  1.48D-07    24.3
                                                     1.64D-07  1.04D-07
 Grid integrated density:      32.999972224315
 Requested integration accuracy:   0.10E-06
 d= 0,ls=0.5,diis    78   -156.9185572890 -5.60D-08  3.35D-05  1.29D-07    24.6
                                                     3.47D-07  8.95D-08
 Grid integrated density:      32.999972224245
 Requested integration accuracy:   0.10E-06
 d= 0,ls=0.5,diis    79   -156.9185573304 -4.14D-08  3.20D-05  1.23D-07    24.9
                                                     4.66D-07  8.69D-08
 Grid integrated density:      32.999972223974
 Requested integration accuracy:   0.10E-06
 d= 0,ls=0.5,diis    80   -156.9185573654 -3.50D-08  2.96D-05  1.19D-07    25.2
                                                     1.77D-07  8.59D-08
 Grid integrated density:      32.999972223978
 Requested integration accuracy:   0.10E-06
 d= 0,ls=0.5,diis    81   -156.9185574054 -4.00D-08  2.77D-05  1.06D-07    25.5
                                                     1.89D-07  7.57D-08
 Grid integrated density:      32.999972224155
 Requested integration accuracy:   0.10E-06
 d= 0,ls=0.5,diis    82   -156.9185574470 -4.16D-08  2.72D-05  8.84D-08    25.8
                                                     2.71D-07  6.14D-08
 Grid integrated density:      32.999972224061
 Requested integration accuracy:   0.10E-06
 d= 0,ls=0.5,diis    83   -156.9185574762 -2.92D-08  2.54D-05  8.31D-08    26.1
                                                     7.38D-08  5.85D-08
 Grid integrated density:      32.999972224127
 Requested integration accuracy:   0.10E-06
 d= 0,ls=0.5,diis    84   -156.9185575082 -3.21D-08  2.44D-05  7.15D-08    26.5
                                                     1.27D-07  4.94D-08
 Grid integrated density:      32.999972224167
 Requested integration accuracy:   0.10E-06
 d= 0,ls=0.5,diis    85   -156.9185575358 -2.76D-08  2.36D-05  6.38D-08    26.8
                                                     2.72D-07  4.39D-08
 Grid integrated density:      32.999972224052
 Requested integration accuracy:   0.10E-06
 d= 0,ls=0.5,diis    86   -156.9185575585 -2.27D-08  2.21D-05  5.96D-08    27.1
                                                     1.51D-07  4.13D-08
 Grid integrated density:      32.999972224015
 Requested integration accuracy:   0.10E-06
 d= 0,ls=0.5,diis    87   -156.9185575811 -2.26D-08  2.16D-05  5.38D-08    27.4
                                                     3.82D-07  3.72D-08
 Grid integrated density:      32.999972223798
 Requested integration accuracy:   0.10E-06
 d= 0,ls=0.5,diis    88   -156.9185575983 -1.72D-08  2.03D-05  5.28D-08    27.7
                                                     2.62D-07  3.73D-08
 Grid integrated density:      32.999972223673
 Requested integration accuracy:   0.10E-06
 d= 0,ls=0.5,diis    89   -156.9185576158 -1.75D-08  1.91D-05  5.02D-08    28.0
                                                     1.66D-07  3.58D-08
 Grid integrated density:      32.999972223620
 Requested integration accuracy:   0.10E-06
 d= 0,ls=0.5,diis    90   -156.9185576334 -1.76D-08  1.82D-05  4.64D-08    28.3
                                                     1.61D-07  3.31D-08
 Grid integrated density:      32.999972223539
 Requested integration accuracy:   0.10E-06
 d= 0,ls=0.5,diis    91   -156.9185576496 -1.63D-08  1.72D-05  4.31D-08    28.6
                                                     1.11D-07  3.08D-08
 Grid integrated density:      32.999972223545
 Requested integration accuracy:   0.10E-06
 d= 0,ls=0.5,diis    92   -156.9185576659 -1.63D-08  1.63D-05  3.90D-08    29.0
                                                     6.62D-08  2.77D-08
 Grid integrated density:      32.999972223572
 Requested integration accuracy:   0.10E-06
 d= 0,ls=0.5,diis    93   -156.9185576818 -1.58D-08  1.57D-05  3.47D-08    29.6
                                                     1.18D-07  2.43D-08
 Grid integrated density:      32.999972223548
 Requested integration accuracy:   0.10E-06
 d= 0,ls=0.5,diis    94   -156.9185576956 -1.38D-08  1.51D-05  3.20D-08    29.9
                                                     1.05D-07  2.22D-08
 Grid integrated density:      32.999972223578
 Requested integration accuracy:   0.10E-06
 d= 0,ls=0.5,diis    95   -156.9185577095 -1.40D-08  1.43D-05  2.89D-08    30.2
                                                     8.14D-08  1.98D-08
 Grid integrated density:      32.999972223655
 Requested integration accuracy:   0.10E-06
 d= 0,ls=0.5,diis    96   -156.9185577236 -1.41D-08  1.43D-05  2.51D-08    30.5
                                                     2.16D-07  1.67D-08
 Grid integrated density:      32.999972223587
 Requested integration accuracy:   0.10E-06
 d= 0,ls=0.5,diis    97   -156.9185577352 -1.16D-08  1.39D-05  2.39D-08    30.8
                                                     2.54D-07  1.59D-08
 Grid integrated density:      32.999972223469
 Requested integration accuracy:   0.10E-06
 d= 0,ls=0.5,diis    98   -156.9185577454 -1.01D-08  1.31D-05  2.42D-08    31.1
                                                     2.20D-07  1.65D-08
 Grid integrated density:      32.999972223376
 Requested integration accuracy:   0.10E-06
 d= 0,ls=0.5,diis    99   -156.9185577556 -1.02D-08  1.19D-05  2.40D-08    31.6
                                                     1.67D-07  1.66D-08
 Grid integrated density:      32.999972223529
 Requested integration accuracy:   0.10E-06
 d= 0,ls=0.5,diis   100   -156.9185577692 -1.36D-08  1.17D-05  1.98D-08    31.9
                                                     2.09D-07  1.29D-08
 Grid integrated density:      32.999972223653
 Requested integration accuracy:   0.10E-06
 d= 0,ls=0.5,diis   101   -156.9185577823 -1.32D-08  1.12D-05  1.60D-08    32.2
                                                     2.47D-07  9.56D-09
 Grid integrated density:      32.999972223895
 Requested integration accuracy:   0.10E-06
 d= 0,ls=0.5,diis   102   -156.9185577952 -1.29D-08  1.10D-05  1.25D-08    32.5
                                                     1.65D-07  6.50D-09
 Grid integrated density:      32.999972224052
 Requested integration accuracy:   0.10E-06
 d= 0,ls=0.5,diis   103   -156.9185578069 -1.17D-08  1.05D-05  1.04D-08    32.8
                                                     2.79D-07  4.61D-09
 Grid integrated density:      32.999972224299
 Requested integration accuracy:   0.10E-06
 d= 0,ls=0.5,diis   104   -156.9185578189 -1.20D-08  1.05D-05  7.84D-09    33.5
                                                     1.97D-07  2.32D-09
 Grid integrated density:      32.999972224480
 Requested integration accuracy:   0.10E-06
 d= 0,ls=0.5,diis   105   -156.9185578299 -1.10D-08  1.02D-05  6.60D-09    33.8
                                                     2.74D-07  1.26D-09
 Grid integrated density:      32.999972224710
 Requested integration accuracy:   0.10E-06
 d= 0,ls=0.5,diis   106   -156.9185578407 -1.08D-08  1.01D-05  5.48D-09    34.1
                                                     1.43D-07  3.24D-10
 Grid integrated density:      32.999972224848
 Requested integration accuracy:   0.10E-06
 d= 0,ls=0.5,diis   107   -156.9185578509 -1.02D-08  9.77D-06  5.14D-09    34.4
                                                     1.34D-07  5.95D-11
 Grid integrated density:      32.999972224971
 Requested integration accuracy:   0.10E-06
 d= 0,ls=0.5,diis   108   -156.9185578608 -9.94D-09  9.59D-06  5.05D-09    34.7
                                                     1.07D-07  4.00D-11
 Grid integrated density:      32.999972225078
 Requested integration accuracy:   0.10E-06
 d= 0,ls=0.5,diis   109   -156.9185578706 -9.78D-09  9.76D-06  5.21D-09    35.0
                                                     5.54D-08  2.23D-10
 Grid integrated density:      32.999972225097
 Requested integration accuracy:   0.10E-06
 d= 0,ls=0.5,diis   110   -156.9185578806 -1.00D-08  9.24D-06  5.38D-09    35.3
                                                     7.77D-08  3.41D-10
 Grid integrated density:      32.999972225171
 Requested integration accuracy:   0.10E-06
 d= 0,ls=0.5,diis   111   -156.9185578904 -9.79D-09  9.08D-06  5.81D-09    35.6
                                                     7.00D-08  7.62D-10
 Grid integrated density:      32.999972225249
 Requested integration accuracy:   0.10E-06
 d= 0,ls=0.5,diis   112   -156.9185579002 -9.80D-09  8.95D-06  6.36D-09    35.9
                                                     6.74D-08  1.27D-09
 Grid integrated density:      32.999972225291
 Requested integration accuracy:   0.10E-06
 d= 0,ls=0.5,diis   113   -156.9185579102 -1.00D-08  8.89D-06  6.80D-09    36.2
                                                     2.74D-08  1.62D-09
 Grid integrated density:      32.999972225324
 Requested integration accuracy:   0.10E-06
 d= 0,ls=0.5,diis   114   -156.9185579204 -1.02D-08  8.78D-06  7.37D-09    36.5
                                                     2.02D-08  2.09D-09
 Grid integrated density:      32.999972225363
 Requested integration accuracy:   0.10E-06
 d= 0,ls=0.5,diis   115   -156.9185579308 -1.03D-08  8.26D-06  7.98D-09    36.8
                                                     1.31D-07  2.58D-09
 Grid integrated density:      32.999972225436
 Requested integration accuracy:   0.10E-06
 d= 0,ls=0.5,diis   116   -156.9185579405 -9.79D-09  7.10D-06  9.05D-09    37.1
                                                     3.96D-07  3.59D-09
 Grid integrated density:      32.999972225596
 Requested integration accuracy:   0.10E-06
 d= 0,ls=0.5,diis   117   -156.9185579481 -7.55D-09  7.26D-06  1.15D-08    37.4
                                                     1.99D-07  6.25D-09
 Grid integrated density:      32.999972225684
 Requested integration accuracy:   0.10E-06
 d= 0,ls=0.5,diis   118   -156.9185579565 -8.44D-09  7.50D-06  1.33D-08    37.8
                                                     9.96D-08  8.01D-09
 Grid integrated density:      32.999972225746
 Requested integration accuracy:   0.10E-06
 d= 0,ls=0.5,diis   119   -156.9185579659 -9.33D-09  7.69D-06  1.45D-08    38.4
                                                     8.49D-08  9.08D-09
 Grid integrated density:      32.999972225822
 Requested integration accuracy:   0.10E-06
 d= 0,ls=0.5,diis   120   -156.9185579755 -9.61D-09  7.89D-06  1.58D-08    38.7
                                                     5.22D-08  1.03D-08
 Grid integrated density:      32.999972225868
 Requested integration accuracy:   0.10E-06
 d= 0,ls=0.5,diis   121   -156.9185579858 -1.03D-08  8.13D-06  1.69D-08    39.0
                                                     8.99D-08  1.11D-08
 Grid integrated density:      32.999972225939
 Requested integration accuracy:   0.10E-06
 d= 0,ls=0.5,diis   122   -156.9185579964 -1.06D-08  8.11D-06  1.81D-08    39.3
                                                     4.96D-08  1.21D-08
 Grid integrated density:      32.999972225967
 Requested integration accuracy:   0.10E-06
 d= 0,ls=0.5,diis   123   -156.9185580075 -1.11D-08  7.85D-06  1.91D-08    39.6
                                                     5.41D-08  1.29D-08
 Grid integrated density:      32.999972225973
 Requested integration accuracy:   0.10E-06
 d= 0,ls=0.5,diis   124   -156.9185580185 -1.09D-08  8.98D-06  2.06D-08    39.9
                                                     2.78D-07  1.42D-08
 Grid integrated density:      32.999972225828
 Requested integration accuracy:   0.10E-06
 d= 0,ls=0.5,diis   125   -156.9185580333 -1.48D-08  8.82D-06  1.88D-08    40.2
                                                     2.12D-07  1.20D-08
 Grid integrated density:      32.999972225732
 Requested integration accuracy:   0.10E-06
 d= 0,ls=0.5,diis   126   -156.9185580475 -1.42D-08  8.57D-06  1.84D-08    40.5
                                                     1.12D-07  1.12D-08
 Grid integrated density:      32.999972225676
 Requested integration accuracy:   0.10E-06
 d= 0,ls=0.5,diis   127   -156.9185580610 -1.35D-08  8.11D-06  1.91D-08    40.8
                                                     6.72D-08  1.17D-08
 Grid integrated density:      32.999972225694
 Requested integration accuracy:   0.10E-06
 d= 0,ls=0.5,diis   128   -156.9185580738 -1.28D-08  7.44D-06  2.07D-08    41.1
                                                     2.00D-07  1.31D-08
 Grid integrated density:      32.999972225610
 Requested integration accuracy:   0.10E-06
 d= 0,ls=0.5,diis   129   -156.9185580862 -1.24D-08  7.32D-06  2.23D-08    41.4
                                                     1.70D-07  1.45D-08
 Grid integrated density:      32.999972225705
 Requested integration accuracy:   0.10E-06
 d= 0,ls=0.5,diis   130   -156.9185580980 -1.18D-08  9.33D-06  2.43D-08    41.7
                                                     3.41D-07  1.66D-08
 Grid integrated density:      32.999972225623
 Requested integration accuracy:   0.10E-06
 d= 0,ls=0.5,diis   131   -156.9185581158 -1.79D-08  8.60D-06  2.22D-08    42.0
                                                     1.49D-07  1.39D-08
 Grid integrated density:      32.999972225589
 Requested integration accuracy:   0.10E-06
 d= 0,ls=0.5,diis   132   -156.9185581318 -1.60D-08  8.57D-06  2.21D-08    42.3
                                                     2.92D-07  1.34D-08
 Grid integrated density:      32.999972225491
 Requested integration accuracy:   0.10E-06
 d= 0,ls=0.5,diis   133   -156.9185581492 -1.73D-08  8.20D-06  2.09D-08    42.6
                                                     1.90D-07  1.21D-08
 Grid integrated density:      32.999972225477
 Requested integration accuracy:   0.10E-06
 d= 0,ls=0.5,diis   134   -156.9185581654 -1.63D-08  9.13D-06  2.09D-08    42.9
                                                     2.27D-07  1.20D-08
 Grid integrated density:      32.999972225396
 Requested integration accuracy:   0.10E-06
 d= 0,ls=0.5,diis   135   -156.9185581837 -1.83D-08  8.83D-06  2.05D-08    43.2
                                                     1.33D-07  1.11D-08
 Grid integrated density:      32.999972225373
 Requested integration accuracy:   0.10E-06
 d= 0,ls=0.5,diis   136   -156.9185582014 -1.77D-08  8.85D-06  2.10D-08    43.5
                                                     6.11D-08  1.13D-08
 Grid integrated density:      32.999972225368
 Requested integration accuracy:   0.10E-06
 d= 0,ls=0.5,diis   137   -156.9185582192 -1.78D-08  1.20D-05  2.17D-08    43.8
                                                     6.86D-07  1.17D-08
 Grid integrated density:      32.999972224936
 Requested integration accuracy:   0.10E-06
 d= 0,ls=0.5,diis   138   -156.9185582442 -2.50D-08  1.01D-05  1.85D-08    44.1
                                                     3.47D-07  7.40D-09
 Grid integrated density:      32.999972224803
 Requested integration accuracy:   0.10E-06
 d= 0,ls=0.5,diis   139   -156.9185582650 -2.08D-08  8.99D-06  1.90D-08    44.4
                                                     2.22D-07  7.59D-09
 Grid integrated density:      32.999972224750
 Requested integration accuracy:   0.10E-06
 d= 0,ls=0.5,diis   140   -156.9185582837 -1.88D-08  9.06D-06  2.08D-08    44.7
                                                     1.28D-07  9.44D-09
 Grid integrated density:      32.999972224792
 Requested integration accuracy:   0.10E-06
 d= 0,ls=0.5,diis   141   -156.9185583032 -1.95D-08  9.32D-06  2.25D-08    45.0
                                                     6.98D-08  1.09D-08
 Grid integrated density:      32.999972224867
 Requested integration accuracy:   0.10E-06
 d= 0,ls=0.5,diis   142   -156.9185583236 -2.04D-08  9.97D-06  2.39D-08    45.3
                                                     1.51D-07  1.20D-08
 Grid integrated density:      32.999972224892
 Requested integration accuracy:   0.10E-06
 d= 0,ls=0.5,diis   143   -156.9185583461 -2.25D-08  9.35D-06  2.47D-08    45.6
                                                     1.03D-07  1.23D-08
 Grid integrated density:      32.999972224986
 Requested integration accuracy:   0.10E-06
 d= 0,ls=0.5,diis   144   -156.9185583674 -2.13D-08  1.04D-05  2.64D-08    45.9
                                                     1.29D-07  1.37D-08
 Grid integrated density:      32.999972225019
 Requested integration accuracy:   0.10E-06
 d= 0,ls=0.5,diis   145   -156.9185583916 -2.42D-08  8.36D-06  2.69D-08    46.2
                                                     3.82D-07  1.37D-08
 Grid integrated density:      32.999972224988
 Requested integration accuracy:   0.10E-06
 d= 0,ls=0.5,diis   146   -156.9185584100 -1.84D-08  1.01D-05  3.09D-08    46.5
                                                     2.24D-07  1.80D-08
 Grid integrated density:      32.999972224988
 Requested integration accuracy:   0.10E-06
 d= 0,ls=0.5,diis   147   -156.9185584347 -2.47D-08  1.14D-05  3.14D-08    46.8
                                                     2.79D-07  1.80D-08
 Grid integrated density:      32.999972224987
 Requested integration accuracy:   0.10E-06
 d= 0,ls=0.5,diis   148   -156.9185584627 -2.80D-08  1.12D-05  3.08D-08    47.1
                                                     1.79D-07  1.65D-08
 Grid integrated density:      32.999972225013
 Requested integration accuracy:   0.10E-06
 d= 0,ls=0.5,diis   149   -156.9185584902 -2.75D-08  1.07D-05  3.15D-08    47.4
                                                     1.65D-07  1.65D-08
 Grid integrated density:      32.999972225107
 Requested integration accuracy:   0.10E-06
 d= 0,ls=0.5,diis   150   -156.9185585165 -2.63D-08  1.30D-05  3.34D-08    47.7
                                                     4.36D-07  1.81D-08
 Grid integrated density:      32.999972225147
 Requested integration accuracy:   0.10E-06
 d= 0,ls=0.5,diis   151   -156.9185585499 -3.34D-08  1.35D-05  3.21D-08    48.0
                                                     4.63D-07  1.55D-08
 Grid integrated density:      32.999972224921
 Requested integration accuracy:   0.10E-06
 d= 0,ls=0.5,diis   152   -156.9185585846 -3.47D-08  1.64D-05  3.04D-08    48.3
                                                     7.50D-07  1.30D-08
 Grid integrated density:      32.999972225019
 Requested integration accuracy:   0.10E-06
 d= 0,ls=0.5,diis   153   -156.9185586252 -4.06D-08  1.47D-05  2.84D-08    48.6
                                                     3.32D-07  8.99D-09
 Grid integrated density:      32.999972225003
 Requested integration accuracy:   0.10E-06
 d= 0,ls=0.5,diis   154   -156.9185586628 -3.76D-08  1.79D-05  2.87D-08    48.9
                                                     7.71D-07  8.54D-09
 Grid integrated density:      32.999972224875
 Requested integration accuracy:   0.10E-06
 d= 0,ls=0.5,diis   155   -156.9185587073 -4.44D-08  1.43D-05  2.82D-08    49.2
                                                     3.18D-07  5.96D-09
 Grid integrated density:      32.999972225057
 Requested integration accuracy:   0.10E-06
 d= 0,ls=0.5,diis   156   -156.9185587469 -3.97D-08  1.44D-05  2.93D-08    49.4
                                                     1.68D-07  6.63D-09
 Grid integrated density:      32.999972225154
 Requested integration accuracy:   0.10E-06
 d= 0,ls=0.5,diis   157   -156.9185587878 -4.09D-08  1.43D-05  3.07D-08    49.7
                                                     1.24D-07  7.50D-09
 Grid integrated density:      32.999972225266
 Requested integration accuracy:   0.10E-06
 d= 0,ls=0.5,diis   158   -156.9185588297 -4.19D-08  1.57D-05  3.24D-08    50.0
                                                     4.44D-07  8.54D-09
 Grid integrated density:      32.999972225415
 Requested integration accuracy:   0.10E-06
 d= 0,ls=0.5,diis   159   -156.9185588760 -4.63D-08  1.64D-05  3.27D-08    50.3
                                                     4.01D-07  8.09D-09
 Grid integrated density:      32.999972225437
 Requested integration accuracy:   0.10E-06
 d= 0,ls=0.5,diis   160   -156.9185589248 -4.88D-08  1.63D-05  3.31D-08    50.6
                                                     2.29D-07  7.40D-09
 Grid integrated density:      32.999972225479
 Requested integration accuracy:   0.10E-06
 d= 0,ls=0.5,diis   161   -156.9185589742 -4.94D-08  1.47D-05  3.45D-08    50.9
                                                     2.74D-07  7.81D-09
 Grid integrated density:      32.999972225470
 Requested integration accuracy:   0.10E-06
 d= 0,ls=0.5,diis   162   -156.9185590208 -4.66D-08  1.53D-05  3.81D-08    51.2
                                                     1.31D-07  1.10D-08
 Grid integrated density:      32.999972225520
 Requested integration accuracy:   0.10E-06
 d= 0,ls=0.5,diis   163   -156.9185590702 -4.94D-08  1.70D-05  4.07D-08    51.5
                                                     2.72D-07  1.30D-08
 Grid integrated density:      32.999972225613
 Requested integration accuracy:   0.10E-06
 d= 0,ls=0.5,diis   164   -156.9185591251 -5.49D-08  1.60D-05  4.20D-08    51.8
                                                     1.22D-07  1.28D-08
 Grid integrated density:      32.999972225759
 Requested integration accuracy:   0.10E-06
 d= 0,ls=0.5,diis   165   -156.9185591786 -5.35D-08  1.62D-05  4.46D-08    52.1
                                                     2.00D-07  1.48D-08
 Grid integrated density:      32.999972225908
 Requested integration accuracy:   0.10E-06
 d= 0,ls=0.5,diis   166   -156.9185592336 -5.50D-08  1.71D-05  4.70D-08    52.4
                                                     1.77D-07  1.65D-08
 Grid integrated density:      32.999972225945
 Requested integration accuracy:   0.10E-06
 d= 0,ls=0.5,diis   167   -156.9185592924 -5.88D-08  1.75D-05  4.88D-08    52.7
                                                     3.09D-07  1.72D-08
 Grid integrated density:      32.999972225879
 Requested integration accuracy:   0.10E-06
 d= 0,ls=0.5,diis   168   -156.9185593532 -6.08D-08  1.92D-05  5.07D-08    53.0
                                                     4.01D-07  1.76D-08
 Grid integrated density:      32.999972225887
 Requested integration accuracy:   0.10E-06
 d= 0,ls=0.5,diis   169   -156.9185594199 -6.67D-08  1.96D-05  5.11D-08    53.3
                                                     3.37D-07  1.64D-08
 Grid integrated density:      32.999972225969
 Requested integration accuracy:   0.10E-06
 d= 0,ls=0.5,diis   170   -156.9185594891 -6.92D-08  1.90D-05  5.24D-08    53.6
                                                     1.67D-07  1.61D-08
 Grid integrated density:      32.999972226058
 Requested integration accuracy:   0.10E-06
 d= 0,ls=0.5,diis   171   -156.9185595587 -6.96D-08  1.90D-05  5.50D-08    53.9
                                                     2.29D-07  1.74D-08
 Grid integrated density:      32.999972226186
 Requested integration accuracy:   0.10E-06
 d= 0,ls=0.5,diis   172   -156.9185596305 -7.17D-08  1.64D-05  5.80D-08    54.1
                                                     4.64D-07  1.87D-08
 Grid integrated density:      32.999972226254
 Requested integration accuracy:   0.10E-06
 d= 0,ls=0.5,diis   173   -156.9185596949 -6.44D-08  2.04D-05  6.48D-08    54.4
                                                     4.96D-07  2.55D-08
 Grid integrated density:      32.999972226384
 Requested integration accuracy:   0.10E-06
 d= 0,ls=0.5,diis   174   -156.9185597757 -8.09D-08  2.19D-05  6.42D-08    54.7
                                                     5.99D-07  2.31D-08
 Grid integrated density:      32.999972226379
 Requested integration accuracy:   0.10E-06
 d= 0,ls=0.5,diis   175   -156.9185598625 -8.68D-08  2.10D-05  6.37D-08    55.0
                                                     2.61D-07  2.01D-08
 Grid integrated density:      32.999972226439
 Requested integration accuracy:   0.10E-06
 d= 0,ls=0.5,diis   176   -156.9185599476 -8.51D-08  2.05D-05  6.62D-08    55.3
                                                     3.15D-07  2.11D-08
 Grid integrated density:      32.999972226413
 Requested integration accuracy:   0.10E-06
 d= 0,ls=0.5,diis   177   -156.9185600348 -8.72D-08  2.05D-05  6.78D-08    55.6
                                                     1.77D-07  2.08D-08
 Grid integrated density:      32.999972226559
 Requested integration accuracy:   0.10E-06
 d= 0,ls=0.5,diis   178   -156.9185601227 -8.79D-08  2.14D-05  7.12D-08    55.9
                                                     2.92D-07  2.29D-08
 Grid integrated density:      32.999972226731
 Requested integration accuracy:   0.10E-06
 d= 0,ls=0.5,diis   179   -156.9185602156 -9.29D-08  2.14D-05  7.40D-08    56.2
                                                     1.46D-07  2.38D-08
 Grid integrated density:      32.999972226888
 Requested integration accuracy:   0.10E-06
 d= 0,ls=0.5,diis   180   -156.9185603103 -9.47D-08  1.72D-05  7.77D-08    56.5
                                                     1.01D-06  2.57D-08
 Grid integrated density:      32.999972227089
 Requested integration accuracy:   0.10E-06
 d= 0,ls=0.5,diis   181   -156.9185603837 -7.34D-08  1.61D-05  9.39D-08    56.8
                                                     1.32D-06  4.33D-08
 Grid integrated density:      32.999972227260
 Requested integration accuracy:   0.10E-06
 d= 0,ls=0.5,diis   182   -156.9185604422 -5.85D-08  1.94D-05  1.19D-07    57.0
                                                     5.14D-07  6.98D-08
 Grid integrated density:      32.999972227406
 Requested integration accuracy:   0.10E-06
 d= 0,ls=0.5,diis   183   -156.9185605264 -8.42D-08  1.86D-05  1.29D-07    57.3
                                                     4.23D-07  7.65D-08
 Grid integrated density:      32.999972227787
 Requested integration accuracy:   0.10E-06
 d= 0,ls=0.5,diis   184   -156.9185606057 -7.93D-08  1.75D-05  1.43D-07    57.6
                                                     5.77D-07  9.02D-08
 Grid integrated density:      32.999972227756
 Requested integration accuracy:   0.10E-06
 d= 0,ls=0.5,diis   185   -156.9185606817 -7.61D-08  1.85D-05  1.58D-07    57.9
                                                     2.95D-07  1.05D-07
 Grid integrated density:      32.999972227885
 Requested integration accuracy:   0.10E-06
 d= 0,ls=0.5,diis   186   -156.9185607692 -8.75D-08  1.92D-05  1.67D-07    58.2
                                                     1.91D-07  1.13D-07
 Grid integrated density:      32.999972227956
 Requested integration accuracy:   0.10E-06
 d= 0,ls=0.5,diis   187   -156.9185608638 -9.46D-08  1.65D-05  1.74D-07    58.5
                                                     7.06D-07  1.17D-07
 Grid integrated density:      32.999972227743
 Requested integration accuracy:   0.10E-06
 d= 0,ls=0.5,diis   188   -156.9185609384 -7.45D-08  1.78D-05  1.94D-07    58.8
                                                     2.79D-07  1.39D-07
 Grid integrated density:      32.999972227847
 Requested integration accuracy:   0.10E-06
 d= 0,ls=0.5,diis   189   -156.9185610278 -8.94D-08  2.99D-05  2.02D-07    59.0
                                                     1.72D-06  1.47D-07
 Grid integrated density:      32.999972228134
 Requested integration accuracy:   0.10E-06
 d= 0,ls=0.5,diis   190   -156.9185611885 -1.61D-07  3.87D-05  1.73D-07    59.3
                                                     2.63D-06  1.09D-07
 Grid integrated density:      32.999972228291
 Requested integration accuracy:   0.10E-06
 d= 0,ls=0.5,diis   191   -156.9185613810 -1.93D-07  3.20D-05  1.42D-07    59.6
                                                     1.08D-06  6.60D-08
 Grid integrated density:      32.999972228554
 Requested integration accuracy:   0.10E-06
 d= 0,ls=0.5,diis   192   -156.9185615415 -1.60D-07  3.30D-05  1.33D-07    59.9
                                                     1.19D-06  5.31D-08
 Grid integrated density:      32.999972228887
 Requested integration accuracy:   0.10E-06
 d= 0,ls=0.5,diis   193   -156.9185617133 -1.72D-07  3.04D-05  1.20D-07    60.2
                                                     5.72D-07  3.64D-08
 Grid integrated density:      32.999972229015
 Requested integration accuracy:   0.10E-06
 d= 0,ls=0.5,diis   194   -156.9185618736 -1.60D-07  2.97D-05  1.21D-07    60.5
                                                     3.70D-07  3.43D-08
 Grid integrated density:      32.999972229173
 Requested integration accuracy:   0.10E-06
 d= 0,ls=0.5,diis   195   -156.9185620356 -1.62D-07  2.21D-05  1.25D-07    60.7
                                                     1.54D-06  3.57D-08
 Grid integrated density:      32.999972229196
 Requested integration accuracy:   0.10E-06
 d= 0,ls=0.5,diis   196   -156.9185621561 -1.20D-07  2.25D-05  1.51D-07    61.0
                                                     1.17D-06  6.53D-08
 Grid integrated density:      32.999972229041
 Requested integration accuracy:   0.10E-06
 d= 0,ls=0.5,diis   197   -156.9185622819 -1.26D-07  2.44D-05  1.74D-07    61.3
                                                     6.09D-07  8.92D-08
 Grid integrated density:      32.999972229266
 Requested integration accuracy:   0.10E-06
 d= 0,ls=0.5,diis   198   -156.9185624223 -1.40D-07  2.58D-05  1.91D-07    61.6
                                                     5.53D-07  1.04D-07
 Grid integrated density:      32.999972229507
 Requested integration accuracy:   0.10E-06
 d= 0,ls=0.5,diis   199   -156.9185625680 -1.46D-07  2.67D-05  2.11D-07    61.9
                                                     2.87D-07  1.21D-07
 Grid integrated density:      32.999972229785
 Requested integration accuracy:   0.10E-06
 d= 0,ls=0.5,diis   200   -156.9185627229 -1.55D-07  2.64D-05  2.26D-07    62.1
                                                     6.43D-07  1.33D-07
 Grid integrated density:      32.999972230069
 Requested integration accuracy:   0.10E-06
 d= 0,ls=0.5,diis   201   -156.9185628672 -1.44D-07  2.76D-05  2.51D-07    62.4
                                                     2.38D-07  1.55D-07
 Grid integrated density:      32.999972230351
 Requested integration accuracy:   0.10E-06
 d= 0,ls=0.5,diis   202   -156.9185630269 -1.60D-07  3.37D-05  2.69D-07    62.7
                                                     1.22D-06  1.70D-07
 Grid integrated density:      32.999972230615
 Requested integration accuracy:   0.10E-06
 d= 0,ls=0.5,diis   203   -156.9185632449 -2.18D-07  3.81D-05  2.55D-07    63.0
                                                     1.53D-06  1.48D-07
 Grid integrated density:      32.999972231154
 Requested integration accuracy:   0.10E-06
 d= 0,ls=0.5,diis   204   -156.9185634875 -2.43D-07  4.29D-05  2.38D-07    63.3
                                                     1.88D-06  1.20D-07
 Grid integrated density:      32.999972231898
 Requested integration accuracy:   0.10E-06
 d= 0,ls=0.5,diis   205   -156.9185637551 -2.68D-07  4.25D-05  2.19D-07    63.5
                                                     1.48D-06  9.27D-08
 Grid integrated density:      32.999972232558
 Requested integration accuracy:   0.10E-06
 d= 0,ls=0.5,diis   206   -156.9185640211 -2.66D-07  3.96D-05  2.14D-07    63.8
                                                     8.02D-07  7.92D-08
 Grid integrated density:      32.999972233097
 Requested integration accuracy:   0.10E-06
 d= 0,ls=0.5,diis   207   -156.9185642801 -2.59D-07  2.57D-05  2.18D-07    64.1
                                                     2.29D-06  7.82D-08
 Grid integrated density:      32.999972233344
 Requested integration accuracy:   0.10E-06
 d= 0,ls=0.5,diis   208   -156.9185644518 -1.72D-07  2.73D-05  2.68D-07    64.4
                                                     9.96D-07  1.34D-07
 Grid integrated density:      32.999972233518
 Requested integration accuracy:   0.10E-06
 d= 0,ls=0.5,diis   209   -156.9185646497 -1.98D-07  2.65D-05  2.99D-07    64.7
                                                     9.82D-07  1.66D-07
 Grid integrated density:      32.999972233569
 Requested integration accuracy:   0.10E-06
 d= 0,ls=0.5,diis   210   -156.9185648424 -1.93D-07  2.80D-05  3.36D-07    64.9
                                                     5.34D-07  2.03D-07
 Grid integrated density:      32.999972233808
 Requested integration accuracy:   0.10E-06
 d= 0,ls=0.5,diis   211   -156.9185650543 -2.12D-07  2.37D-05  3.61D-07    65.2
                                                     2.38D-06  2.27D-07
 Grid integrated density:      32.999972233886
 Requested integration accuracy:   0.10E-06
 d= 0,ls=0.5,diis   212   -156.9185652146 -1.60D-07  3.48D-05  3.94D-07    65.5
                                                     1.44D-06  2.73D-07
 Grid integrated density:      32.999972234375
 Requested integration accuracy:   0.10E-06
 d= 0,ls=0.5,diis   213   -156.9185654942 -2.80D-07  2.79D-05  3.81D-07    65.8
                                                     8.13D-07  2.52D-07
 Grid integrated density:      32.999972234573
 Requested integration accuracy:   0.10E-06
 d= 0,ls=0.5,diis   214   -156.9185656928 -1.99D-07  2.84D-05  4.21D-07    66.1
                                                     5.73D-07  2.98D-07
 Grid integrated density:      32.999972234903
 Requested integration accuracy:   0.10E-06
 d= 0,ls=0.5,diis   215   -156.9185659078 -2.15D-07  4.29D-05  4.51D-07    66.3
                                                     2.16D-06  3.30D-07
 Grid integrated density:      32.999972235645
 Requested integration accuracy:   0.10E-06
 d= 0,ls=0.5,diis   216   -156.9185662665 -3.59D-07  5.55D-05  4.04D-07    66.6
                                                     3.25D-06  2.62D-07
 Grid integrated density:      32.999972236300
 Requested integration accuracy:   0.10E-06
 d= 0,ls=0.5,diis   217   -156.9185667035 -4.37D-07  3.75D-05  3.35D-07    66.9
                                                     1.16D-06  1.68D-07
 Grid integrated density:      32.999972236399
 Requested integration accuracy:   0.10E-06
 d= 0,ls=0.5,diis   218   -156.9185669776 -2.74D-07  3.93D-05  3.77D-07    67.2
                                                     5.28D-07  2.14D-07
 Grid integrated density:      32.999972236724
 Requested integration accuracy:   0.10E-06
 d= 0,ls=0.5,diis   219   -156.9185672862 -3.09D-07  3.57D-05  3.97D-07    67.5
                                                     7.21D-07  2.28D-07
 Grid integrated density:      32.999972236961
 Requested integration accuracy:   0.10E-06
 d= 0,ls=0.5,diis   220   -156.9185675697 -2.83D-07  4.75D-05  4.41D-07    67.7
                                                     1.97D-06  2.73D-07
 Grid integrated density:      32.999972237809
 Requested integration accuracy:   0.10E-06
 d= 0,ls=0.5,diis   221   -156.9185679714 -4.02D-07  4.58D-05  4.23D-07    68.0
                                                     1.07D-06  2.36D-07
 Grid integrated density:      32.999972238646
 Requested integration accuracy:   0.10E-06
 d= 0,ls=0.5,diis   222   -156.9185683488 -3.77D-07  4.71D-05  4.40D-07    68.3
                                                     1.25D-06  2.42D-07
 Grid integrated density:      32.999972239453
 Requested integration accuracy:   0.10E-06
 d= 0,ls=0.5,diis   223   -156.9185687730 -4.24D-07  4.38D-05  4.25D-07    68.6
                                                     5.90D-07  2.11D-07
 Grid integrated density:      32.999972240165
 Requested integration accuracy:   0.10E-06
 d= 0,ls=0.5,diis   224   -156.9185691525 -3.80D-07  5.27D-05  4.59D-07    68.9
                                                     1.70D-06  2.45D-07
 Grid integrated density:      32.999972240952
 Requested integration accuracy:   0.10E-06
 d= 0,ls=0.5,diis   225   -156.9185696316 -4.79D-07  5.00D-05  4.40D-07    69.2
                                                     8.25D-07  2.10D-07
 Grid integrated density:      32.999972241725
 Requested integration accuracy:   0.10E-06
 d= 0,ls=0.5,diis   226   -156.9185700910 -4.59D-07  3.66D-05  4.51D-07    69.4
                                                     2.36D-06  2.10D-07
 Grid integrated density:      32.999972242396
 Requested integration accuracy:   0.10E-06
 d= 0,ls=0.5,diis   227   -156.9185704094 -3.18D-07  5.29D-05  5.39D-07    69.7
                                                     2.04D-06  3.10D-07
 Grid integrated density:      32.999972242707
 Requested integration accuracy:   0.10E-06
 d= 0,ls=0.5,diis   228   -156.9185709531 -5.44D-07  5.10D-05  4.98D-07    70.0
                                                     1.48D-06  2.47D-07
 Grid integrated density:      32.999972244045
 Requested integration accuracy:   0.10E-06
 d= 0,ls=0.5,diis   229   -156.9185714901 -5.37D-07  5.42D-05  4.73D-07    70.3
                                                     1.43D-06  2.05D-07
 Grid integrated density:      32.999972245377
 Requested integration accuracy:   0.10E-06
 d= 0,ls=0.5,diis   230   -156.9185720542 -5.64D-07  5.33D-05  4.49D-07    70.6
                                                     8.63D-07  1.62D-07
 Grid integrated density:      32.999972246226
 Requested integration accuracy:   0.10E-06
 d= 0,ls=0.5,diis   231   -156.9185726089 -5.55D-07  4.42D-05  4.56D-07    70.8
                                                     1.42D-06  1.57D-07
 Grid integrated density:      32.999972246400
 Requested integration accuracy:   0.10E-06
 d= 0,ls=0.5,diis   232   -156.9185730896 -4.81D-07  4.65D-05  5.01D-07    71.1
                                                     7.65D-07  2.03D-07
 Grid integrated density:      32.999972246716
 Requested integration accuracy:   0.10E-06
 d= 0,ls=0.5,diis   233   -156.9185736070 -5.17D-07  5.05D-05  5.37D-07    71.4
                                                     5.52D-07  2.38D-07
 Grid integrated density:      32.999972247336
 Requested integration accuracy:   0.10E-06
 d= 0,ls=0.5,diis   234   -156.9185741717 -5.65D-07  5.53D-05  5.58D-07    71.7
                                                     1.04D-06  2.47D-07
 Grid integrated density:      32.999972248293
 Requested integration accuracy:   0.10E-06
 d= 0,ls=0.5,diis   235   -156.9185747894 -6.18D-07  5.65D-05  5.69D-07    72.0
                                                     1.01D-06  2.41D-07
 Grid integrated density:      32.999972249399
 Requested integration accuracy:   0.10E-06
 d= 0,ls=0.5,diis   236   -156.9185754262 -6.37D-07  8.38D-05  5.84D-07    72.2
                                                     5.31D-06  2.43D-07
 Grid integrated density:      32.999972250015
 Requested integration accuracy:   0.10E-06
 d= 0,ls=0.5,diis   237   -156.9185763083 -8.82D-07  6.56D-05  5.05D-07    72.5
                                                     1.52D-06  1.20D-07
 Grid integrated density:      32.999972251139
 Requested integration accuracy:   0.10E-06
 d= 0,ls=0.5,diis   238   -156.9185770393 -7.31D-07  5.71D-05  5.31D-07    72.8
                                                     1.59D-06  1.34D-07
 Grid integrated density:      32.999972253260
 Requested integration accuracy:   0.10E-06
 d= 0,ls=0.5,diis   239   -156.9185777204 -6.81D-07  7.46D-05  5.91D-07    73.1
                                                     2.52D-06  1.90D-07
 Grid integrated density:      32.999972254878
 Requested integration accuracy:   0.10E-06
 d= 0,ls=0.5,diis   240   -156.9185785697 -8.49D-07  7.29D-05  5.95D-07    73.4
                                                     1.60D-06  1.70D-07
 Grid integrated density:      32.999972256357
 Requested integration accuracy:   0.10E-06
 d= 0,ls=0.5,diis   241   -156.9185794348 -8.65D-07  6.20D-05  6.08D-07    73.6
                                                     1.30D-06  1.61D-07
 Grid integrated density:      32.999972258104
 Requested integration accuracy:   0.10E-06
 d= 0,ls=0.5,diis   242   -156.9185802343 -8.00D-07  6.00D-05  6.51D-07    73.9
                                                     1.27D-06  2.01D-07
 Grid integrated density:      32.999972259789
 Requested integration accuracy:   0.10E-06
 d= 0,ls=0.5,diis   243   -156.9185810273 -7.93D-07  6.67D-05  7.00D-07    74.2
                                                     1.11D-06  2.48D-07
 Grid integrated density:      32.999972262341
 Requested integration accuracy:   0.10E-06
 d= 0,ls=0.5,diis   244   -156.9185819169 -8.90D-07  6.83D-05  7.16D-07    74.5
                                                     7.14D-07  2.44D-07
 Grid integrated density:      32.999972263488
 Requested integration accuracy:   0.10E-06
 d= 0,ls=0.5,diis   245   -156.9185828331 -9.16D-07  6.03D-05  7.45D-07    74.8
                                                     1.71D-06  2.61D-07
 Grid integrated density:      32.999972264310
 Requested integration accuracy:   0.10E-06
 d= 0,ls=0.5,diis   246   -156.9185836460 -8.13D-07  4.78D-05  8.58D-07    75.0
                                                     5.06D-06  3.83D-07
 Grid integrated density:      32.999972265362
 Requested integration accuracy:   0.10E-06
 d= 0,ls=0.5,diis   247   -156.9185841420 -4.96D-07  5.69D-05  1.17D-06    75.3
                                                     1.34D-06  7.43D-07
 Grid integrated density:      32.999972266938
 Requested integration accuracy:   0.10E-06
 d= 0,ls=0.5,diis   248   -156.9185849355 -7.94D-07  7.52D-05  1.26D-06    75.6
                                                     2.87D-06  8.33D-07
 Grid integrated density:      32.999972267849
 Requested integration accuracy:   0.10E-06
 d= 0,ls=0.5,diis   249   -156.9185860528 -1.12D-06  6.93D-05  1.19D-06    75.9
                                                     8.28D-07  7.10D-07
 Grid integrated density:      32.999972269824
 Requested integration accuracy:   0.10E-06
 d= 0,ls=0.5,diis   250   -156.9185870526 -1.00D-06  7.50D-05  1.23D-06    76.1
                                                     1.64D-06  7.35D-07
 Grid integrated density:      32.999972271896
 Requested integration accuracy:   0.10E-06
 d= 0,ls=0.5,diis   251   -156.9185881599 -1.11D-06  7.61D-05  1.25D-06    76.4
                                                     1.29D-06  7.20D-07
 Grid integrated density:      32.999972273693
 Requested integration accuracy:   0.10E-06
 d= 0,ls=0.5,diis   252   -156.9185892890 -1.13D-06  6.99D-05  1.28D-06    76.7
                                                     8.27D-07  7.29D-07
 Grid integrated density:      32.999972275019
 Requested integration accuracy:   0.10E-06
 d= 0,ls=0.5,diis   253   -156.9185903253 -1.04D-06  7.39D-05  1.40D-06    77.0
                                                     1.29D-06  8.44D-07
 Grid integrated density:      32.999972276120
 Requested integration accuracy:   0.10E-06
 d= 0,ls=0.5,diis   254   -156.9185914428 -1.12D-06  7.71D-05  1.50D-06    77.2
                                                     1.12D-06  9.42D-07
 Grid integrated density:      32.999972277968
 Requested integration accuracy:   0.10E-06
 d= 0,ls=0.5,diis   255   -156.9185926549 -1.21D-06  7.57D-05  1.55D-06    77.5
                                                     6.30D-07  9.67D-07
 Grid integrated density:      32.999972279837
 Requested integration accuracy:   0.10E-06
 d= 0,ls=0.5,diis   256   -156.9185938461 -1.19D-06  6.85D-05  1.64D-06    77.8
                                                     2.63D-06  1.04D-06
 Grid integrated density:      32.999972280677
 Requested integration accuracy:   0.10E-06
 d= 0,ls=0.5,diis   257   -156.9185948850 -1.04D-06  7.68D-05  1.82D-06    78.1
                                                     1.35D-06  1.23D-06
 Grid integrated density:      32.999972282331
 Requested integration accuracy:   0.10E-06
 d= 0,ls=0.5,diis   258   -156.9185961170 -1.23D-06  8.07D-05  1.92D-06    78.4
                                                     1.33D-06  1.31D-06
 Grid integrated density:      32.999972284683
 Requested integration accuracy:   0.10E-06
 d= 0,ls=0.5,diis   259   -156.9185974679 -1.35D-06  8.82D-05  1.96D-06    78.6
                                                     2.12D-06  1.32D-06
 Grid integrated density:      32.999972287023
 Requested integration accuracy:   0.10E-06
 d= 0,ls=0.5,diis   260   -156.9185989835 -1.52D-06  9.37D-05  1.91D-06    78.9
                                                     2.32D-06  1.22D-06
 Grid integrated density:      32.999972290015
 Requested integration accuracy:   0.10E-06
 d= 0,ls=0.5,diis   261   -156.9186005925 -1.61D-06  8.88D-05  1.89D-06    79.2
                                                     9.78D-07  1.15D-06
 Grid integrated density:      32.999972292731
 Requested integration accuracy:   0.10E-06
 d= 0,ls=0.5,diis   262   -156.9186021227 -1.53D-06  6.99D-05  1.96D-06    79.5
                                                     4.37D-06  1.19D-06
 Grid integrated density:      32.999972294786
 Requested integration accuracy:   0.10E-06
 d= 0,ls=0.5,diis   263   -156.9186031827 -1.06D-06  7.33D-05  2.32D-06    79.8
                                                     1.96D-06  1.60D-06
 Grid integrated density:      32.999972296727
 Requested integration accuracy:   0.10E-06
 d= 0,ls=0.5,diis   264   -156.9186043698 -1.19D-06  8.28D-05  2.62D-06    80.0
                                                     9.13D-07  1.92D-06
 Grid integrated density:      32.999972299264
 Requested integration accuracy:   0.10E-06
 d= 0,ls=0.5,diis   265   -156.9186058332 -1.46D-06  7.95D-05  2.78D-06    80.3
                                                     1.23D-06  2.05D-06
 Grid integrated density:      32.999972301002
 Requested integration accuracy:   0.10E-06
 d= 0,ls=0.5,diis   266   -156.9186072409 -1.41D-06  8.50D-05  2.99D-06    80.6
                                                     5.86D-07  2.26D-06
 Grid integrated density:      32.999972303651
 Requested integration accuracy:   0.10E-06
 d= 0,ls=0.5,diis   267   -156.9186088007 -1.56D-06  7.75D-05  3.12D-06    80.9
                                                     1.80D-06  2.38D-06
 Grid integrated density:      32.999972306059
 Requested integration accuracy:   0.10E-06
 d= 0,ls=0.5,diis   268   -156.9186101044 -1.30D-06  8.05D-05  3.49D-06    81.1
                                                     9.70D-07  2.77D-06
 Grid integrated density:      32.999972308503
 Requested integration accuracy:   0.10E-06
 d= 0,ls=0.5,diis   269   -156.9186115235 -1.42D-06  7.85D-05  3.79D-06    81.4
                                                     1.47D-06  3.08D-06
 Grid integrated density:      32.999972310925
 Requested integration accuracy:   0.10E-06
 d= 0,ls=0.5,diis   270   -156.9186128716 -1.35D-06  8.03D-05  4.20D-06    81.7
                                                     9.21D-07  3.53D-06
 Grid integrated density:      32.999972313500
 Requested integration accuracy:   0.10E-06
 d= 0,ls=0.5,diis   271   -156.9186143350 -1.46D-06  1.31D-04  4.52D-06    82.0
                                                     8.04D-06  3.88D-06
[...]
    68      0.885025   7 H  s                80      0.885116  11 H  s         
    32      0.747296   3 H  s                50      0.747300   5 H  s         
     5     -0.729673   1 C  s                20     -0.729727   2 C  s         
     4      0.699352   1 C  s                19      0.699373   2 C  s         
    67     -0.683665   7 H  s                79     -0.683716  11 H  s         
 
 Vector   68  Occ=0.000000D+00  E= 2.460864D+00
              MO Center=  1.4D-01, -2.0D-01,  4.6D-01, r^2= 7.3D+00
   Bfn.  Coefficient  Atom+Function         Bfn.  Coefficient  Atom+Function  
  ----- ------------  ---------------      ----- ------------  ---------------
    71      1.174774   8 H  s                83     -1.174832  12 H  s         
    74     -1.128802   9 H  s                77      1.129139  10 H  s         
    70     -0.802883   8 H  s                82      0.802944  12 H  s         
    73      0.788489   9 H  s                76     -0.788716  10 H  s         
    72     -0.733640   8 H  s                84      0.733711  12 H  s         
 
 Vector   69  Occ=0.000000D+00  E= 2.479079D+00
              MO Center= -1.6D-01,  2.4D-01, -5.5D-01, r^2= 5.5D+00
   Bfn.  Coefficient  Atom+Function         Bfn.  Coefficient  Atom+Function  
  ----- ------------  ---------------      ----- ------------  ---------------
    32      1.203411   3 H  s                50      1.203377   5 H  s         
    74      0.961966   9 H  s                77      0.961667  10 H  s         
    31     -0.835412   3 H  s                49     -0.835399   5 H  s         
    30      0.660866   2 C  pz               73     -0.609878   9 H  s         
    76     -0.609627  10 H  s                13      0.524247   1 C  px        
 
 Vector   70  Occ=0.000000D+00  E= 2.489032D+00
              MO Center=  1.1D-01, -1.6D-01,  3.7D-01, r^2= 6.9D+00
   Bfn.  Coefficient  Atom+Function         Bfn.  Coefficient  Atom+Function  
  ----- ------------  ---------------      ----- ------------  ---------------
    71      1.284504   8 H  s                83      1.284246  12 H  s         
    70     -0.900144   8 H  s                82     -0.899980  12 H  s         
    74     -0.756920   9 H  s                77     -0.756969  10 H  s         
    73      0.588809   9 H  s                76      0.588837  10 H  s         
    72     -0.555398   8 H  s                84     -0.555072  12 H  s         
 
 Vector   71  Occ=0.000000D+00  E= 2.513392D+00
              MO Center= -5.9D-02,  8.6D-02, -2.0D-01, r^2= 4.4D+00
   Bfn.  Coefficient  Atom+Function         Bfn.  Coefficient  Atom+Function  
  ----- ------------  ---------------      ----- ------------  ---------------
    30      2.813983   2 C  pz               15     -2.248062   1 C  pz        
     6     -1.808680   1 C  s                21      1.808544   2 C  s         
     5      1.789506   1 C  s                20     -1.789393   2 C  s         
    14      1.489675   1 C  py                4     -1.248722   1 C  s         
    19      1.248662   2 C  s                39      1.157911   4 C  s         
 
 Vector   72  Occ=0.000000D+00  E= 2.603397D+00
              MO Center=  1.4D-01, -2.0D-01,  4.6D-01, r^2= 4.4D+00
   Bfn.  Coefficient  Atom+Function         Bfn.  Coefficient  Atom+Function  
  ----- ------------  ---------------      ----- ------------  ---------------
    15      2.700051   1 C  pz               30     -2.649667   2 C  pz        
    68      1.296159   7 H  s                80     -1.296049  11 H  s         
    69     -1.275678   7 H  s                81      1.275623  11 H  s         
    29      1.189603   2 C  py               14     -1.117534   1 C  py        
    33      1.083854   3 H  s                51     -1.083716   5 H  s         
 
 Vector   73  Occ=0.000000D+00  E= 2.665157D+00
              MO Center= -1.5D-01,  2.1D-01, -4.9D-01, r^2= 2.6D+00
   Bfn.  Coefficient  Atom+Function         Bfn.  Coefficient  Atom+Function  
  ----- ------------  ---------------      ----- ------------  ---------------
     5      3.227155   1 C  s                20      3.227175   2 C  s         
     4     -2.607631   1 C  s                19     -2.607688   2 C  s         
     6     -2.311308   1 C  s                21     -2.311181   2 C  s         
    38      1.011504   4 C  s                56      1.011462   6 C  s         
    37     -0.882056   4 C  s                55     -0.882015   6 C  s         
 
 Vector   74  Occ=0.000000D+00  E= 2.886433D+00
              MO Center= -2.3D-01,  3.3D-01, -7.8D-01, r^2= 2.2D+00
   Bfn.  Coefficient  Atom+Function         Bfn.  Coefficient  Atom+Function  
  ----- ------------  ---------------      ----- ------------  ---------------
     6      6.537339   1 C  s                21     -6.543861   2 C  s         
     5     -4.281446   1 C  s                20      4.285860   2 C  s         
     4      2.770074   1 C  s                19     -2.772952   2 C  s         
    29     -1.906616   2 C  py               28      1.767959   2 C  px        
    15     -1.622799   1 C  pz               14     -1.586057   1 C  py        
 
 Vector   75  Occ=0.000000D+00  E= 2.887490D+00
              MO Center=  1.2D-01, -1.7D-01,  4.0D-01, r^2= 4.5D+00
   Bfn.  Coefficient  Atom+Function         Bfn.  Coefficient  Atom+Function  
  ----- ------------  ---------------      ----- ------------  ---------------
    39      4.538790   4 C  s                57      4.539574   6 C  s         
    38     -3.446450   4 C  s                56     -3.447591   6 C  s         
    37      2.452156   4 C  s                55      2.452936   6 C  s         
     6     -2.115849   1 C  s                21     -2.094742   2 C  s         
     5      1.435510   1 C  s                20      1.421689   2 C  s         
 
 Vector   76  Occ=0.000000D+00  E= 3.033202D+00
              MO Center=  1.6D-01, -2.3D-01,  5.3D-01, r^2= 4.7D+00
   Bfn.  Coefficient  Atom+Function         Bfn.  Coefficient  Atom+Function  
  ----- ------------  ---------------      ----- ------------  ---------------
    39      7.319194   4 C  s                57     -7.319335   6 C  s         
    15     -4.902784   1 C  pz               38     -3.890075   4 C  s         
    56      3.890133   6 C  s                30      3.419056   2 C  pz        
    29     -2.832092   2 C  py               37      2.509447   4 C  s         
    55     -2.509480   6 C  s                 6     -2.260910   1 C  s         
 
 Vector   77  Occ=0.000000D+00  E= 1.168176D+01
              MO Center= -1.7D-01,  2.4D-01, -5.5D-01, r^2= 9.6D-01
   Bfn.  Coefficient  Atom+Function         Bfn.  Coefficient  Atom+Function  
  ----- ------------  ---------------      ----- ------------  ---------------
     4     -2.271608   1 C  s                19     -2.271641   2 C  s         
     3      2.253490   1 C  s                18      2.253529   2 C  s         
     5      1.857439   1 C  s                20      1.857454   2 C  s         
     2     -1.188809   1 C  s                17     -1.188830   2 C  s         
     6     -1.094909   1 C  s                21     -1.094864   2 C  s         
 
 Vector   78  Occ=0.000000D+00  E= 1.186400D+01
              MO Center=  1.3D-01, -1.8D-01,  4.3D-01, r^2= 2.9D+00
   Bfn.  Coefficient  Atom+Function         Bfn.  Coefficient  Atom+Function  
  ----- ------------  ---------------      ----- ------------  ---------------
    37     -2.342752   4 C  s                55     -2.342875   6 C  s         
    36      2.273779   4 C  s                54      2.273895   6 C  s         
    38      2.056221   4 C  s                56      2.056336   6 C  s         
    39     -1.623046   4 C  s                57     -1.623154   6 C  s         
    35     -1.191274   4 C  s                53     -1.191335   6 C  s         
 
 Vector   79  Occ=0.000000D+00  E= 1.191769D+01
              MO Center=  1.4D-01, -2.0D-01,  4.7D-01, r^2= 2.9D+00
   Bfn.  Coefficient  Atom+Function         Bfn.  Coefficient  Atom+Function  
  ----- ------------  ---------------      ----- ------------  ---------------
    37     -2.472520   4 C  s                55      2.472401   6 C  s         
    36      2.336529   4 C  s                54     -2.336413   6 C  s         
    38      2.286966   4 C  s                56     -2.286863   6 C  s         
    39     -2.187870   4 C  s                57      2.187805   6 C  s         
    35     -1.217823   4 C  s                53      1.217762   6 C  s         
 
 Vector   80  Occ=0.000000D+00  E= 1.209632D+01
              MO Center= -1.8D-01,  2.5D-01, -5.9D-01, r^2= 8.0D-01
   Bfn.  Coefficient  Atom+Function         Bfn.  Coefficient  Atom+Function  
  ----- ------------  ---------------      ----- ------------  ---------------
     6      2.897130   1 C  s                21     -2.897076   2 C  s         
     4      2.524792   1 C  s                19     -2.524745   2 C  s         
     5     -2.494860   1 C  s                20      2.494811   2 C  s         
     3     -2.350928   1 C  s                18      2.350888   2 C  s         
     2      1.219393   1 C  s                17     -1.219372   2 C  s         
 
 Vector   81  Occ=0.000000D+00  E= 6.263547D+01
              MO Center= -1.6D-01,  2.4D-01, -5.5D-01, r^2= 6.9D-01
   Bfn.  Coefficient  Atom+Function         Bfn.  Coefficient  Atom+Function  
  ----- ------------  ---------------      ----- ------------  ---------------
     2      2.025518   1 C  s                17      2.025554   2 C  s         
     3     -1.529329   1 C  s                18     -1.529356   2 C  s         
     1     -1.203124   1 C  s                16     -1.203145   2 C  s         
     4      0.999630   1 C  s                19      0.999645   2 C  s         
     5     -0.775828   1 C  s                20     -0.775834   2 C  s         
 
 Vector   82  Occ=0.000000D+00  E= 6.281190D+01
              MO Center=  1.2D-01, -1.8D-01,  4.2D-01, r^2= 2.6D+00
   Bfn.  Coefficient  Atom+Function         Bfn.  Coefficient  Atom+Function  
  ----- ------------  ---------------      ----- ------------  ---------------
    35      2.037458   4 C  s                53      2.037545   6 C  s         
    36     -1.552534   4 C  s                54     -1.552601   6 C  s         
    34     -1.204528   4 C  s                52     -1.204580   6 C  s         
    37      1.039897   4 C  s                55      1.039943   6 C  s         
    38     -0.866561   4 C  s                56     -0.866602   6 C  s         
 
 Vector   83  Occ=0.000000D+00  E= 6.286979D+01
              MO Center=  1.4D-01, -2.0D-01,  4.6D-01, r^2= 2.6D+00
   Bfn.  Coefficient  Atom+Function         Bfn.  Coefficient  Atom+Function  
  ----- ------------  ---------------      ----- ------------  ---------------
    35      2.086985   4 C  s                53     -2.086895   6 C  s         
    36     -1.598805   4 C  s                54      1.598736   6 C  s         
    34     -1.231514   4 C  s                52      1.231461   6 C  s         
    37      1.099695   4 C  s                55     -1.099650   6 C  s         
    38     -0.964203   4 C  s                56      0.964166   6 C  s         
 
 Vector   84  Occ=0.000000D+00  E= 6.304540D+01
              MO Center= -1.8D-01,  2.5D-01, -5.9D-01, r^2= 5.4D-01
   Bfn.  Coefficient  Atom+Function         Bfn.  Coefficient  Atom+Function  
  ----- ------------  ---------------      ----- ------------  ---------------
     2      2.097394   1 C  s                17     -2.097359   2 C  s         
     3     -1.618543   1 C  s                18      1.618515   2 C  s         
     6      1.246118   1 C  s                21     -1.246094   2 C  s         
     1     -1.232719   1 C  s                16      1.232698   2 C  s         
     4      1.134844   1 C  s                19     -1.134822   2 C  s         
 

   alpha - beta orbital overlaps 
   ----------------------------- 


   alpha      1      2      3      4      5      6      7      8      9     10
    beta      1      2      3      4      5      6      7      8      9     10
 overlap   1.000  1.000  1.000  1.000  1.000  1.000  1.000  1.000  1.000  0.999


   alpha     11     12     13     14     15     16     17     18     19     20
    beta     11     12     13     14     15     16     18     17     19     20
 overlap   0.999  0.999  0.999  1.000  1.000  1.000  0.778  0.775  0.995  0.984


   alpha     21     22     23     24     25     26     27     28     29     30
    beta     22     21     24     23     25     26     27     28     29     30
 overlap   0.946  0.961  0.874  0.876  0.999  0.998  0.998  0.998  1.000  0.998


   alpha     31     32     33     34     35     36     37     38     39     40
    beta     31     32     33     34     35     36     37     38     39     40
 overlap   0.998  0.999  0.997  0.998  0.999  0.985  0.989  0.999  0.999  0.948


   alpha     41     42     43     44     45     46     47     48     49     50
    beta     41     42     43     44     45     46     47     48     49     50
 overlap   0.947  0.991  0.998  0.999  0.992  0.998  1.000  1.000  1.000  1.000


   alpha     51     52     53     54     55     56     57     58     59     60
    beta     51     52     53     54     55     56     57     58     59     60
 overlap   0.996  0.996  1.000  0.999  0.999  1.000  0.998  0.998  0.999  0.738


   alpha     61     62     63     64     65     66     67     68     69     70
    beta     61     62     63     64     65     66     67     68     69     70
 overlap   0.738  1.000  1.000  1.000  1.000  1.000  0.999  0.999  0.992  0.991


   alpha     71     72     73     74     75     76     77     78     79     80
    beta     71     72     73     74     75     76     77     78     79     80
 overlap   1.000  1.000  1.000  1.000  1.000  1.000  1.000  1.000  1.000  1.000


   alpha     81     82     83     84
    beta     81     82     83     84
 overlap   1.000  1.000  1.000  1.000

     --------------------------
     Expectation value of S2:  
     --------------------------
      <S2> =      0.7510 (Exact =     0.7500)
 

 center of mass
 --------------
 x =  -0.01532698 y =   0.02212499 z =  -0.05128875

 moments of inertia (a.u.)
 ------------------
         315.661061152034         140.931488664450          73.337535972621
         140.931488664450         295.019161509948         -69.138578835156
          73.337535972621         -69.138578835156         305.946350866981
 
     Multipole analysis of the density
     ---------------------------------
 
     L   x y z        total         alpha         beta         nuclear
     -   - - -        -----         -----         ----         -------
     0   0 0 0     -1.000000    -17.000000    -16.000000     32.000000
 
     1   1 0 0     -0.039312     -0.052270      0.012958      0.000000
     1   0 1 0      0.056746      0.075478     -0.018732     -0.000000
     1   0 0 1     -0.131612     -0.174983      0.043371      0.000000
 
     2   2 0 0    -33.386253    -68.950898    -56.877462     92.442107
     2   1 1 0      3.521592     47.416840     43.365353    -87.260602
     2   1 0 1      3.233858     25.602479     22.100167    -44.468788
     2   0 2 0    -29.924278    -71.590458    -63.755952    105.422132
     2   0 1 1     -2.033820    -22.743606    -20.828852     41.538637
     2   0 0 2    -29.492604    -69.170495    -61.095343    100.773234
 

 Task  times  cpu:      198.2s     wall:      206.8s
 
 
                                NWChem Input Module
                                -------------------
 
 
 Summary of allocated global arrays
-----------------------------------
  No active global arrays



                         GA Statistics for process    0
                         ------------------------------

       create   destroy   get      put      acc     scatter   gather  read&inc
calls: 1.45e+04 1.45e+04 2.38e+06 9.27e+04 1.81e+06    0        0     2.07e+04 
number of processes/call 7.48e+00 6.68e+01 5.82e+00 0.00e+00 0.00e+00
bytes total:             2.80e+09 3.29e+08 1.57e+09 0.00e+00 0.00e+00 1.66e+05
bytes remote:            2.29e+09 1.90e+08 1.34e+09 0.00e+00 0.00e+00 0.00e+00
Max memory consumed for GA by this process: 459552 bytes
 
 
 
                                     CITATION
                                     --------
                Please cite the following reference when publishing
                           results obtained with NWChem:
 
          E. Apr, E. J. Bylaska, W. A. de Jong, N. Govind, K. Kowalski,
       T. P. Straatsma, M. Valiev, H. J. J. van Dam, Y. Alexeev, J. Anchell,
       V. Anisimov, F. W. Aquino, R. Atta-Fynn, J. Autschbach, N. P. Bauman,
     J. C. Becca, D. E. Bernholdt, K. Bhaskaran-Nair, S. Bogatko, P. Borowski,
        J. Boschen, J. Brabec, A. Bruner, E. Caut, Y. Chen, G. N. Chuev,
      C. J. Cramer, J. Daily, M. J. O. Deegan, T. H. Dunning Jr., M. Dupuis,
   K. G. Dyall, G. I. Fann, S. A. Fischer, A. Fonari, H. Frchtl, L. Gagliardi,
      J. Garza, N. Gawande, S. Ghosh, K. Glaesemann, A. W. Gtz, J. Hammond,
       V. Helms, E. D. Hermes, K. Hirao, S. Hirata, M. Jacquelin, L. Jensen,
   B. G. Johnson, H. Jnsson, R. A. Kendall, M. Klemm, R. Kobayashi, V. Konkov,
      S. Krishnamoorthy, M. Krishnan, Z. Lin, R. D. Lins, R. J. Littlefield,
      A. J. Logsdail, K. Lopata, W. Ma, A. V. Marenich, J. Martin del Campo,
   D. Mejia-Rodriguez, J. E. Moore, J. M. Mullin, T. Nakajima, D. R. Nascimento,
    J. A. Nichols, P. J. Nichols, J. Nieplocha, A. Otero-de-la-Roza, B. Palmer,
    A. Panyala, T. Pirojsirikul, B. Peng, R. Peverati, J. Pittner, L. Pollack,
   R. M. Richard, P. Sadayappan, G. C. Schatz, W. A. Shelton, D. W. Silverstein,
   D. M. A. Smith, T. A. Soares, D. Song, M. Swart, H. L. Taylor, G. S. Thomas,
            V. Tipparaju, D. G. Truhlar, K. Tsemekhman, T. Van Voorhis,
     . Vzquez-Mayagoitia, P. Verma, O. Villa, A. Vishnu, K. D. Vogiatzis,
        D. Wang, J. H. Weare, M. J. Williamson, T. L. Windus, K. Woliski,
        A. T. Wong, Q. Wu, C. Yang, Q. Yu, M. Zacharias, Z. Zhang, Y. Zhao,
                                and R. J. Harrison
                        "NWChem: Past, present, and future
                         J. Chem. Phys. 152, 184102 (2020)
                               doi:10.1063/5.0004997
 
                                      AUTHORS
                                      -------
     E. Apra, E. J. Bylaska, N. Govind, K. Kowalski, M. Valiev, W. A. de Jong,
      T. P. Straatsma, H. J. J. van Dam, D. Wang, T. L. Windus, N. P. Bauman,
       A. Panyala, J. Hammond, J. Autschbach, K. Bhaskaran-Nair, J. Brabec,
    K. Lopata, S. A. Fischer, S. Krishnamoorthy, M. Jacquelin, W. Ma, M. Klemm,
       O. Villa, Y. Chen, V. Anisimov, F. Aquino, S. Hirata, M. T. Hackler,
           Eric Hermes, L. Jensen, J. E. Moore, J. C. Becca, V. Konjkov,
            D. Mejia-Rodriguez, T. Risthaus, M. Malagoli, A. Marenich,
   A. Otero-de-la-Roza, J. Mullin, P. Nichols, R. Peverati, J. Pittner, Y. Zhao,
        P.-D. Fan, A. Fonari, M. J. Williamson, R. J. Harrison, J. R. Rehr,
      M. Dupuis, D. Silverstein, D. M. A. Smith, J. Nieplocha, V. Tipparaju,
      M. Krishnan, B. E. Van Kuiken, A. Vazquez-Mayagoitia, M. Swart, Q. Wu,
   T. Van Voorhis, A. A. Auer, M. Nooijen, L. D. Crosby, E. Brown, G. Cisneros,
     G. I. Fann, H. Fruchtl, J. Garza, K. Hirao, R. A. Kendall, J. A. Nichols,
       K. Tsemekhman, K. Wolinski, J. Anchell, D. E. Bernholdt, P. Borowski,
       T. Clark, D. Clerc, H. Dachsel, M. J. O. Deegan, K. Dyall, D. Elwood,
      E. Glendening, M. Gutowski, A. C. Hess, J. Jaffe, B. G. Johnson, J. Ju,
        R. Kobayashi, R. Kutteh, Z. Lin, R. Littlefield, X. Long, B. Meng,
      T. Nakajima, S. Niu, L. Pollack, M. Rosing, K. Glaesemann, G. Sandrone,
      M. Stave, H. Taylor, G. Thomas, J. H. van Lenthe, A. T. Wong, Z. Zhang.

 Total times  cpu:      198.2s     wall:      206.9s
