 
             Northwest Computational Chemistry Package (NWChem) 7.0.0
             --------------------------------------------------------
 
 
                    Environmental Molecular Sciences Laboratory
                       Pacific Northwest National Laboratory
                                Richland, WA 99352
 
                              Copyright (c) 1994-2020
                       Pacific Northwest National Laboratory
                            Battelle Memorial Institute
 
             NWChem is an open-source computational chemistry package
                        distributed under the terms of the
                      Educational Community License (ECL) 2.0
             A copy of the license is included with this distribution
                              in the LICENSE.TXT file
 
                                  ACKNOWLEDGMENT
                                  --------------

            This software and its documentation were developed at the
            EMSL at Pacific Northwest National Laboratory, a multiprogram
            national laboratory, operated for the U.S. Department of Energy
            by Battelle under Contract Number DE-AC05-76RL01830. Support
            for this work was provided by the Department of Energy Office
            of Biological and Environmental Research, Office of Basic
            Energy Sciences, and the Office of Advanced Scientific Computing.


                                NWChem Input Module
                                -------------------
 
 
 Summary of "ao basis" -> "" (spherical)
 ------------------------------------------------------------------------------
       Tag                 Description            Shells   Functions and Types
 ---------------- ------------------------------  ------  ---------------------
 *                        ahlrichs_vtz                on all atoms 



 Scaling coordinates for geometry "geometry" by  1.889725989
 (inverse scale =  0.529177249)

 
 
                             Geometry "geometry" -> ""
                             -------------------------
 
 Output coordinates in angstroms (scale by  1.889725989 to convert to a.u.)
 
  No.       Tag          Charge          X              Y              Z
 ---- ---------------- ---------- -------------- -------------- --------------
    1 C                    6.0000    -0.59951542     0.80255290    -0.45086700
    2 C                    6.0000     0.14730898    -0.12593532    -1.07900314
    3 H                    1.0000    -1.14306562     1.52624786    -1.07136544
    4 C                    6.0000    -0.81485580     0.96357688     1.03284389
    5 H                    1.0000     0.18365486    -0.09619679    -2.17537706
    6 C                    6.0000     0.98493478    -1.21298255    -0.45422950
    7 H                    1.0000    -0.16330706     0.28229710     1.60062608
    8 C                    6.0000    -2.28520694     0.72831045     1.43924501
    9 H                    1.0000    -0.52461462     1.98779524     1.32934551
   10 H                    1.0000     0.65689280    -2.19164826    -0.84908226
   11 H                    1.0000     0.82891853    -1.25237448     0.63440293
   12 C                    6.0000     2.48886326    -1.03724383    -0.75344393
   13 H                    1.0000    -2.59253338    -0.30192419     1.20706133
   14 H                    1.0000    -2.95897360     1.40842205     0.89538071
   15 H                    1.0000    -2.43076033     0.89763007     2.51673434
   16 H                    1.0000     2.67514939    -1.00996138    -1.83828541
   17 H                    1.0000     3.07692345    -1.86517979    -0.32973242
   18 H                    1.0000     2.86254233    -0.09477864    -0.32698040
 
      Atomic Mass 
      ----------- 
 
      C                 12.000000
      H                  1.007825
 

 Effective nuclear repulsion energy (a.u.)     229.6861571680

            Nuclear Dipole moment (a.u.) 
            ----------------------------
        X                 Y               Z
 ---------------- ---------------- ----------------
     0.0000000000    -0.0000000000    -0.0000000000
 
 
            XYZ format geometry
            -------------------
    18
 geometry
 C                    -0.59951542     0.80255290    -0.45086700
 C                     0.14730898    -0.12593532    -1.07900314
 H                    -1.14306562     1.52624786    -1.07136544
 C                    -0.81485580     0.96357688     1.03284389
 H                     0.18365486    -0.09619679    -2.17537706
 C                     0.98493478    -1.21298255    -0.45422950
 H                    -0.16330706     0.28229710     1.60062608
 C                    -2.28520694     0.72831045     1.43924501
 H                    -0.52461462     1.98779524     1.32934551
 H                     0.65689280    -2.19164826    -0.84908226
 H                     0.82891853    -1.25237448     0.63440293
 C                     2.48886326    -1.03724383    -0.75344393
 H                    -2.59253338    -0.30192419     1.20706133
 H                    -2.95897360     1.40842205     0.89538071
 H                    -2.43076033     0.89763007     2.51673434
 H                     2.67514939    -1.00996138    -1.83828541
 H                     3.07692345    -1.86517979    -0.32973242
 H                     2.86254233    -0.09477864    -0.32698040
 
 ==============================================================================
                                internuclear distances
 ------------------------------------------------------------------------------
       center one      |      center two      | atomic units |  angstroms
 ------------------------------------------------------------------------------
    2 C                |   1 C                |     2.54545  |     1.34699
    3 H                |   1 C                |     2.07371  |     1.09736
    4 C                |   1 C                |     2.84948  |     1.50788
    5 H                |   2 C                |     2.07375  |     1.09738
    6 C                |   2 C                |     2.84944  |     1.50786
    7 H                |   4 C                |     2.07959  |     1.10047
    8 C                |   4 C                |     2.91682  |     1.54352
    9 H                |   4 C                |     2.08828  |     1.10507
   10 H                |   6 C                |     2.08839  |     1.10513
   11 H                |   6 C                |     2.07957  |     1.10046
   12 C                |   6 C                |     2.91668  |     1.54344
   13 H                |   8 C                |     2.07848  |     1.09988
   14 H                |   8 C                |     2.08067  |     1.10105
   15 H                |   8 C                |     2.07942  |     1.10038
   16 H                |  12 C                |     2.08070  |     1.10106
   17 H                |  12 C                |     2.07941  |     1.10037
   18 H                |  12 C                |     2.07848  |     1.09989
 ------------------------------------------------------------------------------
                         number of included internuclear distances:         17
 ==============================================================================



 ==============================================================================
                                 internuclear angles
 ------------------------------------------------------------------------------
        center 1       |       center 2       |       center 3       |  degrees
 ------------------------------------------------------------------------------
    2 C                |   1 C                |   3 H                |   117.74
    2 C                |   1 C                |   4 C                |   127.71
    3 H                |   1 C                |   4 C                |   114.53
    1 C                |   2 C                |   5 H                |   117.75
    1 C                |   2 C                |   6 C                |   127.71
    5 H                |   2 C                |   6 C                |   114.53
    1 C                |   4 C                |   7 H                |   110.92
    1 C                |   4 C                |   8 C                |   112.26
    1 C                |   4 C                |   9 H                |   108.99
    7 H                |   4 C                |   8 C                |   109.50
    7 H                |   4 C                |   9 H                |   106.25
    8 C                |   4 C                |   9 H                |   108.71
    2 C                |   6 C                |  10 H                |   109.00
    2 C                |   6 C                |  11 H                |   110.91
    2 C                |   6 C                |  12 C                |   112.26
   10 H                |   6 C                |  11 H                |   106.24
   10 H                |   6 C                |  12 C                |   108.71
   11 H                |   6 C                |  12 C                |   109.51
    4 C                |   8 C                |  13 H                |   110.69
    4 C                |   8 C                |  14 H                |   111.02
    4 C                |   8 C                |  15 H                |   111.12
   13 H                |   8 C                |  14 H                |   107.66
   13 H                |   8 C                |  15 H                |   108.29
   14 H                |   8 C                |  15 H                |   107.92
    6 C                |  12 C                |  16 H                |   111.02
    6 C                |  12 C                |  17 H                |   111.13
    6 C                |  12 C                |  18 H                |   110.70
   16 H                |  12 C                |  17 H                |   107.92
   16 H                |  12 C                |  18 H                |   107.66
   17 H                |  12 C                |  18 H                |   108.29
 ------------------------------------------------------------------------------
                            number of included internuclear angles:         30
 ==============================================================================



                              Aldehyde and Ketone set
                              -----------------------
 
                                 NWChem DFT Module
                                 -----------------
 
 
                              Aldehyde and Ketone set
 
 
                      Basis "ao basis" -> "ao basis" (spherical)
                      -----
  C (Carbon)
  ----------
            Exponent  Coefficients 
       -------------- ---------------------------------------------------------
  1 S  8.50603840E+03  0.000534
  1 S  1.27573290E+03  0.004125
  1 S  2.90311870E+02  0.021171
  1 S  8.20562000E+01  0.082418
  1 S  2.64796410E+01  0.240129
 
  2 S  9.24145850E+00  1.000000
 
  3 S  3.36435300E+00  1.000000
 
  4 S  8.71741640E-01  1.000000
 
  5 S  3.63523520E-01  1.000000
 
  6 S  1.28731350E-01  1.000000
 
  7 P  3.47094960E+01  0.005330
  7 P  7.95908830E+00  0.035866
  7 P  2.37869720E+00  0.142003
  7 P  8.15400650E-01  0.342031
 
  8 P  2.89537850E-01  1.000000
 
  9 P  1.00847540E-01  1.000000
 
  H (Hydrogen)
  ------------
            Exponent  Coefficients 
       -------------- ---------------------------------------------------------
  1 S  3.40613410E+01  0.006025
  1 S  5.12357460E+00  0.045021
  1 S  1.16466260E+00  0.201897
 
  2 S  3.27230410E-01  1.000000
 
  3 S  1.03072410E-01  1.000000
 


 Summary of "ao basis" -> "ao basis" (spherical)
 ------------------------------------------------------------------------------
       Tag                 Description            Shells   Functions and Types
 ---------------- ------------------------------  ------  ---------------------
 C                        ahlrichs vtz               9       15   6s3p
 H                        ahlrichs vtz               3        3   3s




 Summary of "ao basis" -> "ao basis" (spherical)
 ------------------------------------------------------------------------------
       Tag                 Description            Shells   Functions and Types
 ---------------- ------------------------------  ------  ---------------------
 C                        ahlrichs vtz               9       15   6s3p
 H                        ahlrichs vtz               3        3   3s


  Caching 1-el integrals 
 
            General Information
            -------------------
          SCF calculation type: DFT
          Wavefunction type:  spin polarized.
          No. of atoms     :    18
          No. of electrons :    49
           Alpha electrons :    25
            Beta electrons :    24
          Charge           :    -1
          Spin multiplicity:     2
          Use of symmetry is: off; symmetry adaption is: off
          Maximum number of iterations: 999
          This is a Direct SCF calculation.
          AO basis - number of functions:   126
                     number of shells:    90
          Convergence on energy requested:  1.00D-08
          Convergence on density requested:  1.00D-07
          Convergence on gradient requested:  1.00D-06
 
              XC Information
              --------------
                        PBE96 Method XC Functional
          PerdewBurkeErnzerhof Exchange Functional  1.000          
            Perdew 1991 LDA Correlation Functional  1.000 local    
           PerdewBurkeErnz. Correlation Functional  1.000 non-local
 
             Grid Information
             ----------------
          Grid used for XC integration:  fine      
          Radial quadrature: Mura-Knowles        
          Angular quadrature: Lebedev. 
          Tag              B.-S. Rad. Rad. Pts. Rad. Cut. Ang. Pts.
          ---              ---------- --------- --------- ---------
          C                   0.70       70          15.0       590
          H                   0.35       60          16.0       590
          Grid pruning is: on 
          Number of quadrature shells:  1140
          Spatial weights used:  Erf1
 
          Convergence Information
          -----------------------
          Convergence aids based upon iterative change in 
          total energy or number of iterations. 
          Levelshifting, if invoked, occurs when the 
          HOMO/LUMO gap drops below (HL_TOL):  1.00D-02
          DIIS, if invoked, will attempt to extrapolate 
          using up to (NFOCK): 10 stored Fock matrices.

                    Damping( 0%)  Levelshifting(0.5)       DIIS
                  --------------- ------------------- ---------------
          dE  on:    start            ASAP                start   
          dE off:    2 iters        999 iters           999 iters 

 
      Screening Tolerance Information
      -------------------------------
          Density screening/tol_rho:  1.00D-12
          AO Gaussian exp screening on grid/accAOfunc:  18
          CD Gaussian exp screening on grid/accCDfunc:  20
          XC Gaussian exp screening on grid/accXCfunc:  20
          Schwarz screening/accCoul:  1.00D-12

      Dispersion Parameters
      ---------------------

           DFT-D3BJ Model   
          s6 scale factor  :        1.000000000000
          s8 scale factor  :        0.787500000000
          a1 parameter     :        0.428900000000
          a2 parameter     :        4.440700000000
              vdW contrib  :       -0.013571138934


 Forcing the number of linearly dependent vectors to be  0
 
      Superposition of Atomic Density Guess
      -------------------------------------
 
 Sum of atomic energies:        -232.02458117
   Time after variat. SCF:      0.2
   Time prior to 1st pass:      0.2

 Grid_pts file          = ./18_cisEtCHCHEt.gridpts.00
 Record size in doubles =  12289        No. of grid_pts per rec  =   3070
 Max. records in memory =     18        Max. recs in file   =  67550051

 Grid integrated density:      48.000025910245
 Requested integration accuracy:   0.10E-06

           Memory utilization after 1st SCF pass: 
           Heap Space remaining (MW):        0.00                 242
          Stack Space remaining (MW):      288.36           288356460

   convergence    iter        energy       DeltaE   RMS-Dens  Diis-err    time
 ---------------- ----- ----------------- --------- --------- ---------  ------
 d= 0,ls=0.0,diis     1   -236.1725537300 -4.66D+02  1.43D-02  1.77D+01     0.7
                                                     1.24D-02  1.63D+01
 d= 0,ls=0.0,diis     2   -234.9286725053  1.24D+00  1.33D-01  8.88D-01     1.5
                                                     1.09D-01  8.26D-01
 Grid integrated density:      49.000026264811
 Requested integration accuracy:   0.10E-06
 d= 0,ls=0.5,diis     3   -232.7500193932  2.18D+00  4.16D-02  3.70D+00     2.4
                                                     3.91D-02  3.53D+00
 Grid integrated density:      49.000026314470
 Requested integration accuracy:   0.10E-06
 d= 0,ls=0.5,diis     4   -234.5165596276 -1.77D+00  2.66D-02  1.17D+00     3.2
                                                     3.16D-02  1.16D+00
 Grid integrated density:      49.000024652675
 Requested integration accuracy:   0.10E-06
 d= 0,ls=0.5,diis     5   -235.1164092551 -6.00D-01  1.37D-02  3.61D-01     4.0
                                                     1.90D-02  3.84D-01
 Grid integrated density:      49.000022744305
 Requested integration accuracy:   0.10E-06
 d= 0,ls=0.5,diis     6   -235.3328345856 -2.16D-01  8.69D-03  1.02D-01     4.8
                                                     1.06D-02  1.15D-01
 Grid integrated density:      49.000020866083
 Requested integration accuracy:   0.10E-06
 d= 0,ls=0.5,diis     7   -235.4110554924 -7.82D-02  5.95D-03  2.74D-02     5.6
                                                     5.46D-03  3.13D-02
 Grid integrated density:      49.000019567986
 Requested integration accuracy:   0.10E-06
 d= 0,ls=0.5,diis     8   -235.4387205029 -2.77D-02  4.39D-03  8.57D-03     6.4
                                                     2.86D-03  9.28D-03
 Grid integrated density:      49.000018581497
 Requested integration accuracy:   0.10E-06
 d= 0,ls=0.5,diis     9   -235.4497171103 -1.10D-02  3.51D-03  3.23D-03     7.2
                                                     1.53D-03  2.96D-03
 Grid integrated density:      49.000017950759
 Requested integration accuracy:   0.10E-06
 d= 0,ls=0.5,diis    10   -235.4543923888 -4.68D-03  2.96D-03  1.86D-03     8.0
                                                     9.01D-04  1.29D-03
 Grid integrated density:      49.000017433151
 Requested integration accuracy:   0.10E-06
 d= 0,ls=0.5,diis    11   -235.4568765766 -2.48D-03  2.58D-03  1.35D-03     8.8
                                                     5.55D-04  7.21D-04
 Grid integrated density:      49.000017027101
 Requested integration accuracy:   0.10E-06
 d= 0,ls=0.5,diis    12   -235.4584473003 -1.57D-03  2.29D-03  1.01D-03     9.6
                                                     3.56D-04  4.31D-04
 Grid integrated density:      49.000016646549
 Requested integration accuracy:   0.10E-06
 d= 0,ls=0.5,diis    13   -235.4594941427 -1.05D-03  2.03D-03  7.99D-04    10.4
                                                     2.32D-04  2.98D-04
 Grid integrated density:      49.000016323028
 Requested integration accuracy:   0.10E-06
 d= 0,ls=0.5,diis    14   -235.4602845088 -7.90D-04  1.77D-03  6.22D-04    11.2
                                                     1.64D-04  2.15D-04
 Grid integrated density:      49.000016063193
 Requested integration accuracy:   0.10E-06
 d= 0,ls=0.5,diis    15   -235.4607933263 -5.09D-04  1.58D-03  6.15D-04    12.0
                                                     1.06D-04  2.68D-04
 Grid integrated density:      49.000015802472
 Requested integration accuracy:   0.10E-06
 d= 0,ls=0.5,diis    16   -235.4612565692 -4.63D-04  1.33D-03  5.24D-04    12.8
                                                     9.18D-05  2.38D-04
 Grid integrated density:      49.000015603219
 Requested integration accuracy:   0.10E-06
 d= 0,ls=0.5,diis    17   -235.4615409992 -2.84D-04  1.12D-03  5.62D-04    13.6
                                                     8.69D-05  3.20D-04
 Grid integrated density:      49.000015439765
 Requested integration accuracy:   0.10E-06
 d= 0,ls=0.5,diis    18   -235.4617115491 -1.71D-04  1.12D-03  6.72D-04    14.4
                                                     3.84D-05  4.58D-04
 Grid integrated density:      49.000015213489
 Requested integration accuracy:   0.10E-06
 d= 0,ls=0.5,diis    19   -235.4620698706 -3.58D-04  9.44D-04  4.47D-04    15.2
                                                     4.76D-05  2.78D-04
 Grid integrated density:      49.000015058175
 Requested integration accuracy:   0.10E-06
 d= 0,ls=0.5,diis    20   -235.4622376077 -1.68D-04  8.39D-04  4.63D-04    16.0
                                                     4.80D-05  3.09D-04
 Grid integrated density:      49.000014916102
 Requested integration accuracy:   0.10E-06
 d= 0,ls=0.5,diis    21   -235.4623468701 -1.09D-04  7.47D-04  5.27D-04    16.8
                                                     3.73D-05  3.84D-04
 Grid integrated density:      49.000014781491
 Requested integration accuracy:   0.10E-06
 d= 0,ls=0.5,diis    22   -235.4624603723 -1.14D-04  6.85D-04  5.37D-04    17.6
                                                     1.97D-05  4.04D-04
 Grid integrated density:      49.000014644975
 Requested integration accuracy:   0.10E-06
 d= 0,ls=0.5,diis    23   -235.4625972156 -1.37D-04  6.39D-04  4.86D-04    18.4
                                                     1.34D-05  3.63D-04
 Grid integrated density:      49.000014506452
 Requested integration accuracy:   0.10E-06
 d= 0,ls=0.5,diis    24   -235.4627262656 -1.29D-04  5.75D-04  4.22D-04    19.2
                                                     1.95D-05  3.14D-04
 Grid integrated density:      49.000014382293
 Requested integration accuracy:   0.10E-06
 d= 0,ls=0.5,diis    25   -235.4628156795 -8.94D-05  5.31D-04  4.00D-04    20.1
                                                     1.64D-05  2.99D-04
 Grid integrated density:      49.000014272202
 Requested integration accuracy:   0.10E-06
 d= 0,ls=0.5,diis    26   -235.4628946209 -7.89D-05  4.95D-04  3.78D-04    20.9
                                                     1.05D-05  2.85D-04
 Grid integrated density:      49.000014162237
 Requested integration accuracy:   0.10E-06
 d= 0,ls=0.5,diis    27   -235.4629744325 -7.98D-05  4.60D-04  3.41D-04    21.7
                                                     1.12D-05  2.57D-04
 Grid integrated density:      49.000014062350
 Requested integration accuracy:   0.10E-06
 d= 0,ls=0.5,diis    28   -235.4630391857 -6.48D-05  4.30D-04  3.14D-04    22.5
                                                     1.74D-05  2.39D-04
 Grid integrated density:      49.000013976096
 Requested integration accuracy:   0.10E-06
 d= 0,ls=0.5,diis    29   -235.4630840294 -4.48D-05  3.98D-04  3.08D-04    23.3
                                                     1.03D-05  2.43D-04
 Grid integrated density:      49.000013888350
 Requested integration accuracy:   0.10E-06
 d= 0,ls=0.5,diis    30   -235.4631338999 -4.99D-05  3.67D-04  2.86D-04    24.1
                                                     1.49D-05  2.28D-04
 Grid integrated density:      49.000013812286
 Requested integration accuracy:   0.10E-06
 d= 0,ls=0.5,diis    31   -235.4631675071 -3.36D-05  3.41D-04  2.79D-04    24.9
                                                     2.85D-05  2.28D-04
 Grid integrated density:      49.000013754585
 Requested integration accuracy:   0.10E-06
 d= 0,ls=0.5,diis    32   -235.4631677510 -2.44D-07  3.13D-04  3.14D-04    25.7
                                                     9.30D-06  2.71D-04
 Grid integrated density:      49.000013685798
 Requested integration accuracy:   0.10E-06
 d= 0,ls=0.5,diis    33   -235.4632082857 -4.05D-05  2.96D-04  2.85D-04    26.5
                                                     5.08D-06  2.46D-04
 Grid integrated density:      49.000013611783
 Requested integration accuracy:   0.10E-06
 d= 0,ls=0.5,diis    34   -235.4632548045 -4.65D-05  2.83D-04  2.46D-04    27.3
                                                     6.52D-06  2.11D-04
 Grid integrated density:      49.000013543185
 Requested integration accuracy:   0.10E-06
 d= 0,ls=0.5,diis    35   -235.4632929949 -3.82D-05  2.68D-04  2.18D-04    28.1
                                                     3.89D-06  1.87D-04
 Grid integrated density:      49.000013476413
 Requested integration accuracy:   0.10E-06
 d= 0,ls=0.5,diis    36   -235.4633275975 -3.46D-05  2.54D-04  1.92D-04    29.0
                                                     4.23D-06  1.64D-04
 Grid integrated density:      49.000013412984
 Requested integration accuracy:   0.10E-06
 d= 0,ls=0.5,diis    37   -235.4633603477 -3.28D-05  2.35D-04  1.66D-04    29.8
                                                     4.72D-06  1.42D-04
 Grid integrated density:      49.000013351383
 Requested integration accuracy:   0.10E-06
 d= 0,ls=0.5,diis    38   -235.4633908405 -3.05D-05  2.27D-04  1.40D-04    30.6
                                                     6.38D-06  1.19D-04
 Grid integrated density:      49.000013287905
 Requested integration accuracy:   0.10E-06
 d= 0,ls=0.5,diis    39   -235.4634206955 -2.99D-05  2.11D-04  1.15D-04    31.5
                                                     2.29D-06  9.52D-05
 Grid integrated density:      49.000013234198
 Requested integration accuracy:   0.10E-06
 d= 0,ls=0.5,diis    40   -235.4634409325 -2.02D-05  1.98D-04  1.01D-04    32.3
                                                     2.24D-06  8.42D-05
 Grid integrated density:      49.000013186123
 Requested integration accuracy:   0.10E-06
 d= 0,ls=0.5,diis    41   -235.4634580690 -1.71D-05  1.92D-04  8.99D-05    33.1
                                                     7.27D-06  7.47D-05
 Grid integrated density:      49.000013131801
 Requested integration accuracy:   0.10E-06
 d= 0,ls=0.5,diis    42   -235.4634806412 -2.26D-05  1.88D-04  6.94D-05    33.9
                                                     7.37D-06  5.56D-05
 Grid integrated density:      49.000013080568
 Requested integration accuracy:   0.10E-06
 d= 0,ls=0.5,diis    43   -235.4635008420 -2.02D-05  1.76D-04  5.11D-05    34.7
                                                     5.13D-06  3.90D-05
 Grid integrated density:      49.000013031816
 Requested integration accuracy:   0.10E-06
 d= 0,ls=0.5,diis    44   -235.4635159630 -1.51D-05  1.70D-04  3.92D-05    35.5
                                                     4.20D-06  2.87D-05
 Grid integrated density:      49.000012986083
 Requested integration accuracy:   0.10E-06
 d= 0,ls=0.5,diis    45   -235.4635287202 -1.28D-05  1.59D-04  2.96D-05    36.3
                                                     2.04D-06  2.06D-05
 Grid integrated density:      49.000012946326
 Requested integration accuracy:   0.10E-06
 d= 0,ls=0.5,diis    46   -235.4635377485 -9.03D-06  1.47D-04  2.45D-05    37.1
                                                     2.44D-06  1.69D-05
 Grid integrated density:      49.000012911148
 Requested integration accuracy:   0.10E-06
 d= 0,ls=0.5,diis    47   -235.4635446265 -6.88D-06  1.34D-04  2.15D-05    37.9
                                                     5.01D-06  1.48D-05
 Grid integrated density:      49.000012881613
 Requested integration accuracy:   0.10E-06
 d= 0,ls=0.5,diis    48   -235.4635490271 -4.40D-06  1.23D-04  2.11D-05    38.7
                                                     6.67D-06  1.51D-05
 Grid integrated density:      49.000012856491
 Requested integration accuracy:   0.10E-06
 d= 0,ls=0.5,diis    49   -235.4635518436 -2.82D-06  1.14D-04  2.22D-05    39.5
                                                     4.80D-06  1.67D-05
 Grid integrated density:      49.000012833019
 Requested integration accuracy:   0.10E-06
 d= 0,ls=0.5,diis    50   -235.4635551126 -3.27D-06  1.07D-04  2.17D-05    40.3
                                                     2.92D-06  1.67D-05
 Grid integrated density:      49.000012809001
 Requested integration accuracy:   0.10E-06
 d= 0,ls=0.5,diis    51   -235.4635588269 -3.71D-06  1.01D-04  2.00D-05    41.1
                                                     2.65D-06  1.55D-05
 Grid integrated density:      49.000012785355
 Requested integration accuracy:   0.10E-06
 d= 0,ls=0.5,diis    52   -235.4635620821 -3.26D-06  9.45D-05  1.86D-05    41.9
                                                     3.46D-06  1.45D-05
 Grid integrated density:      49.000012765537
 Requested integration accuracy:   0.10E-06
 d= 0,ls=0.5,diis    53   -235.4635644782 -2.40D-06  8.92D-05  1.79D-05    42.7
                                                     2.25D-06  1.43D-05
 Grid integrated density:      49.000012745243
 Requested integration accuracy:   0.10E-06
 d= 0,ls=0.5,diis    54   -235.4635670562 -2.58D-06  8.37D-05  1.67D-05    43.6
                                                     4.65D-06  1.35D-05
 Grid integrated density:      49.000012728332
 Requested integration accuracy:   0.10E-06
 d= 0,ls=0.5,diis    55   -235.4635679950 -9.39D-07  8.17D-05  1.76D-05    44.4
                                                     4.28D-06  1.48D-05
 Grid integrated density:      49.000012712357
 Requested integration accuracy:   0.10E-06
 d= 0,ls=0.5,diis    56   -235.4635693620 -1.37D-06  7.79D-05  1.75D-05    45.2
                                                     3.31D-06  1.53D-05
 Grid integrated density:      49.000012696414
 Requested integration accuracy:   0.10E-06
 d= 0,ls=0.5,diis    57   -235.4635708964 -1.53D-06  7.23D-05  1.70D-05    46.0
                                                     5.24D-06  1.51D-05
 Grid integrated density:      49.000012683414
 Requested integration accuracy:   0.10E-06
 d= 0,ls=0.5,diis    58   -235.4635710785 -1.82D-07  6.59D-05  1.82D-05    46.8
                                                     5.67D-06  1.66D-05
 Grid integrated density:      49.000012672730
 Requested integration accuracy:   0.10E-06
 d= 0,ls=0.5,diis    59   -235.4635705705  5.08D-07  5.86D-05  2.02D-05    47.6
                                                     2.59D-06  1.87D-05
 Grid integrated density:      49.000012660007
 Requested integration accuracy:   0.10E-06
 d= 0,ls=0.5,diis    60   -235.4635717259 -1.16D-06  5.76D-05  1.95D-05    48.4
                                                     6.08D-06  1.80D-05
 Grid integrated density:      49.000012642497
 Requested integration accuracy:   0.10E-06
 d= 0,ls=0.5,diis    61   -235.4635758612 -4.14D-06  5.66D-05  1.44D-05    49.3
                                                     3.91D-06  1.31D-05
 Grid integrated density:      49.000012624991
 Requested integration accuracy:   0.10E-06
 d= 0,ls=0.5,diis    62   -235.4635787518 -2.89D-06  5.88D-05  1.13D-05    50.1
                                                     7.28D-06  1.01D-05
 Grid integrated density:      49.000012607411
 Requested integration accuracy:   0.10E-06
 d= 0,ls=0.5,diis    63   -235.4635824929 -3.74D-06  5.58D-05  6.66D-06    50.9
                                                     4.56D-06  5.57D-06
 Grid integrated density:      49.000012589677
 Requested integration accuracy:   0.10E-06
 d= 0,ls=0.5,diis    64   -235.4635845734 -2.08D-06  5.09D-05  4.69D-06    51.7
                                                     2.34D-06  3.75D-06
 Grid integrated density:      49.000012575033
 Requested integration accuracy:   0.10E-06
 d= 0,ls=0.5,diis    65   -235.4635857925 -1.22D-06  4.79D-05  3.85D-06    52.5
                                                     1.39D-06  3.02D-06
 Grid integrated density:      49.000012562138
 Requested integration accuracy:   0.10E-06
 d= 0,ls=0.5,diis    66   -235.4635868071 -1.01D-06  4.47D-05  3.14D-06    53.3
                                                     9.52D-07  2.40D-06
 Grid integrated density:      49.000012550391
 Requested integration accuracy:   0.10E-06
 d= 0,ls=0.5,diis    67   -235.4635876507 -8.44D-07  4.28D-05  2.59D-06    54.1
                                                     1.10D-06  1.92D-06
 Grid integrated density:      49.000012539167
 Requested integration accuracy:   0.10E-06
 d= 0,ls=0.5,diis    68   -235.4635884254 -7.75D-07  4.15D-05  2.04D-06    54.9
                                                     1.48D-06  1.44D-06
 Grid integrated density:      49.000012528284
 Requested integration accuracy:   0.10E-06
 d= 0,ls=0.5,diis    69   -235.4635892019 -7.76D-07  3.92D-05  1.41D-06    55.7
                                                     8.17D-07  9.10D-07
 Grid integrated density:      49.000012518137
 Requested integration accuracy:   0.10E-06
 d= 0,ls=0.5,diis    70   -235.4635897730 -5.71D-07  3.60D-05  1.03D-06    56.5
                                                     8.57D-07  6.16D-07
 Grid integrated density:      49.000012509734
 Requested integration accuracy:   0.10E-06
 d= 0,ls=0.5,diis    71   -235.4635901324 -3.59D-07  3.29D-05  9.08D-07    57.3
                                                     1.41D-06  5.52D-07
 Grid integrated density:      49.000012502623
 Requested integration accuracy:   0.10E-06
 d= 0,ls=0.5,diis    72   -235.4635903676 -2.35D-07  2.97D-05  9.19D-07    58.1
                                                     1.59D-06  6.03D-07
 Grid integrated density:      49.000012496347
 Requested integration accuracy:   0.10E-06
 d= 0,ls=0.5,diis    73   -235.4635905464 -1.79D-07  2.77D-05  9.48D-07    58.9
                                                     1.49D-06  6.63D-07
 Grid integrated density:      49.000012490786
 Requested integration accuracy:   0.10E-06
 d= 0,ls=0.5,diis    74   -235.4635906955 -1.49D-07  2.57D-05  9.79D-07    59.7
                                                     1.61D-06  7.22D-07
 Grid integrated density:      49.000012485960
 Requested integration accuracy:   0.10E-06
 d= 0,ls=0.5,diis    75   -235.4635907922 -9.67D-08  2.40D-05  1.06D-06    60.5
                                                     1.20D-06  8.20D-07
 Grid integrated density:      49.000012481035
 Requested integration accuracy:   0.10E-06
 d= 0,ls=0.5,diis    76   -235.4635909066 -1.14D-07  2.25D-05  1.07D-06    61.3
                                                     9.18D-07  8.57D-07
 Grid integrated density:      49.000012476393
 Requested integration accuracy:   0.10E-06
 d= 0,ls=0.5,diis    77   -235.4635910314 -1.25D-07  2.11D-05  1.05D-06    62.1
                                                     4.92D-07  8.46D-07
 Grid integrated density:      49.000012471606
 Requested integration accuracy:   0.10E-06
 d= 0,ls=0.5,diis    78   -235.4635912172 -1.86D-07  1.99D-05  9.05D-07    63.0
                                                     5.40D-07  7.23D-07
 Grid integrated density:      49.000012467240
 Requested integration accuracy:   0.10E-06
 d= 0,ls=0.5,diis    79   -235.4635913304 -1.13D-07  1.91D-05  8.68D-07    63.8
                                                     4.56D-07  7.03D-07
 Grid integrated density:      49.000012462732
 Requested integration accuracy:   0.10E-06
 d= 0,ls=0.5,diis    80   -235.4635914655 -1.35D-07  1.86D-05  7.81D-07    64.5
                                                     4.08D-07  6.42D-07
 Grid integrated density:      49.000012458313
 Requested integration accuracy:   0.10E-06
 d= 0,ls=0.5,diis    81   -235.4635915989 -1.33D-07  1.79D-05  6.84D-07    65.4
                                                     4.38D-07  5.69D-07
 Grid integrated density:      49.000012453860
 Requested integration accuracy:   0.10E-06
 d= 0,ls=0.5,diis    82   -235.4635917361 -1.37D-07  1.67D-05  5.72D-07    66.2
                                                     3.84D-07  4.79D-07
 Grid integrated density:      49.000012449575
 Requested integration accuracy:   0.10E-06
 d= 0,ls=0.5,diis    83   -235.4635918719 -1.36D-07  1.61D-05  4.51D-07    67.0
                                                     4.03D-07  3.69D-07
 Grid integrated density:      49.000012445611
 Requested integration accuracy:   0.10E-06
 d= 0,ls=0.5,diis    84   -235.4635919884 -1.17D-07  1.50D-05  3.53D-07    67.8
                                                     1.62D-07  2.84D-07
 Grid integrated density:      49.000012441847
 Requested integration accuracy:   0.10E-06
 d= 0,ls=0.5,diis    85   -235.4635920697 -8.13D-08  1.39D-05  3.04D-07    68.6
                                                     2.07D-07  2.44D-07
 Grid integrated density:      49.000012438297
 Requested integration accuracy:   0.10E-06
 d= 0,ls=0.5,diis    86   -235.4635921381 -6.84D-08  1.29D-05  2.65D-07    69.4
                                                     3.38D-07  2.12D-07
 Grid integrated density:      49.000012435434
 Requested integration accuracy:   0.10E-06
 d= 0,ls=0.5,diis    87   -235.4635921805 -4.24D-08  1.22D-05  2.57D-07    70.2
                                                     2.10D-07  2.08D-07
 Grid integrated density:      49.000012432397
 Requested integration accuracy:   0.10E-06
 d= 0,ls=0.5,diis    88   -235.4635922432 -6.27D-08  1.16D-05  2.11D-07    71.0
                                                     7.67D-08  1.67D-07
 Grid integrated density:      49.000012429538
 Requested integration accuracy:   0.10E-06
 d= 0,ls=0.5,diis    89   -235.4635922937 -5.05D-08  1.09D-05  1.78D-07    71.8
                                                     1.56D-07  1.39D-07
 Grid integrated density:      49.000012426864
 Requested integration accuracy:   0.10E-06
 d= 0,ls=0.5,diis    90   -235.4635923337 -4.00D-08  1.03D-05  1.57D-07    72.6
                                                     1.75D-07  1.23D-07
 Grid integrated density:      49.000012424254
 Requested integration accuracy:   0.10E-06
 d= 0,ls=0.5,diis    91   -235.4635923765 -4.28D-08  9.74D-06  1.26D-07    73.4
                                                     8.87D-08  9.64D-08
 Grid integrated density:      49.000012421844
 Requested integration accuracy:   0.10E-06
 d= 0,ls=0.5,diis    92   -235.4635924100 -3.36D-08  9.09D-06  1.06D-07    74.2
                                                     1.22D-07  7.93D-08
 Grid integrated density:      49.000012419593
 Requested integration accuracy:   0.10E-06
 d= 0,ls=0.5,diis    93   -235.4635924408 -3.08D-08  8.66D-06  8.59D-08    75.0
                                                     8.07D-08  6.21D-08
 Grid integrated density:      49.000012417438
 Requested integration accuracy:   0.10E-06
 d= 0,ls=0.5,diis    94   -235.4635924669 -2.60D-08  8.01D-06  7.09D-08    75.8
                                                     1.49D-07  4.99D-08
 Grid integrated density:      49.000012415570
 Requested integration accuracy:   0.10E-06
 d= 0,ls=0.5,diis    95   -235.4635924850 -1.81D-08  7.46D-06  6.49D-08    76.6
                                                     2.43D-07  4.59D-08
 Grid integrated density:      49.000012413933
 Requested integration accuracy:   0.10E-06
 d= 0,ls=0.5,diis    96   -235.4635924983 -1.33D-08  6.92D-06  6.28D-08    77.4
                                                     4.22D-07  4.55D-08
 Grid integrated density:      49.000012412612
 Requested integration accuracy:   0.10E-06
 d= 0,ls=0.5,diis    97   -235.4635925041 -5.78D-09  6.44D-06  6.97D-08    78.2
                                                     2.24D-07  5.35D-08
 Grid integrated density:      49.000012411250
 Requested integration accuracy:   0.10E-06
 d= 0,ls=0.5,diis    98   -235.4635925144 -1.03D-08  6.03D-06  6.71D-08    79.0
                                                     2.18D-07  5.24D-08
 Grid integrated density:      49.000012409976
 Requested integration accuracy:   0.10E-06
 d= 0,ls=0.5,diis    99   -235.4635925228 -8.47D-09  5.68D-06  6.57D-08    79.8
                                                     1.28D-07  5.23D-08
 Grid integrated density:      49.000012408653
 Requested integration accuracy:   0.10E-06
 d= 0,ls=0.5,diis   100   -235.4635925346 -1.18D-08  5.42D-06  5.82D-08    80.7
                                                     1.07D-07  4.58D-08
 Grid integrated density:      49.000012407324
 Requested integration accuracy:   0.10E-06
 d= 0,ls=0.5,diis   101   -235.4635925473 -1.26D-08  5.19D-06  4.80D-08    81.5
                                                     1.06D-07  3.74D-08
 Grid integrated density:      49.000012406033
 Requested integration accuracy:   0.10E-06
 d= 0,ls=0.5,diis   102   -235.4635925583 -1.10D-08  4.89D-06  3.95D-08    82.3
                                                     8.61D-08  3.01D-08
 Grid integrated density:      49.000012404919
 Requested integration accuracy:   0.10E-06
 d= 0,ls=0.5,diis   103   -235.4635925661 -7.86D-09  4.73D-06  3.50D-08    83.1
                                                     1.22D-07  2.69D-08
 Grid integrated density:      49.000012403793
 Requested integration accuracy:   0.10E-06
 d= 0,ls=0.5,diis   104   -235.4635925731 -7.01D-09  4.36D-06  3.14D-08    83.9
                                                     9.50D-08  2.49D-08
 Grid integrated density:      49.000012402808
 Requested integration accuracy:   0.10E-06
 d= 0,ls=0.5,diis   105   -235.4635925788 -5.62D-09  4.07D-06  2.87D-08    84.7
                                                     7.23D-08  2.31D-08
 Grid integrated density:      49.000012401884
 Requested integration accuracy:   0.10E-06
 d= 0,ls=0.5,diis   106   -235.4635925837 -4.94D-09  3.82D-06  2.63D-08    85.5
                                                     1.56D-07  2.15D-08
 Grid integrated density:      49.000012401095
 Requested integration accuracy:   0.10E-06
 d= 0,ls=0.5,diis   107   -235.4635925864 -2.66D-09  3.57D-06  2.67D-08    86.3
                                                     5.40D-08  2.26D-08
 Grid integrated density:      49.000012400243
 Requested integration accuracy:   0.10E-06
 d= 0,ls=0.5,diis   108   -235.4635925914 -5.03D-09  3.40D-06  2.29D-08    87.1
                                                     1.14D-07  1.93D-08
 Grid integrated density:      49.000012399348
 Requested integration accuracy:   0.10E-06
 d= 0,ls=0.5,diis   109   -235.4635925972 -5.77D-09  3.28D-06  1.78D-08    87.9
                                                     1.29D-07  1.48D-08
 Grid integrated density:      49.000012398465
 Requested integration accuracy:   0.10E-06
 d= 0,ls=0.5,diis   110   -235.4635926025 -5.38D-09  3.08D-06  1.31D-08    88.7
                                                     4.61D-08  1.05D-08
 Grid integrated density:      49.000012397676
 Requested integration accuracy:   0.10E-06
 d= 0,ls=0.5,diis   111   -235.4635926060 -3.50D-09  2.92D-06  1.09D-08    89.5
                                                     4.20D-08  8.57D-09
 Grid integrated density:      49.000012396936
 Requested integration accuracy:   0.10E-06
 d= 0,ls=0.5,diis   112   -235.4635926091 -3.06D-09  2.73D-06  8.98D-09    90.3
                                                     2.74D-08  6.97D-09
 Grid integrated density:      49.000012396277
 Requested integration accuracy:   0.10E-06
 d= 0,ls=0.5,diis   113   -235.4635926115 -2.45D-09  2.56D-06  7.63D-09    91.1
                                                     2.94D-08  5.88D-09
 Grid integrated density:      49.000012395633
 Requested integration accuracy:   0.10E-06
 d= 0,ls=0.5,diis   114   -235.4635926137 -2.15D-09  2.33D-06  6.53D-09    91.9
                                                     1.21D-07  4.94D-09
 Grid integrated density:      49.000012395166
 Requested integration accuracy:   0.10E-06
 d= 0,ls=0.5,diis   115   -235.4635926145 -8.13D-10  2.19D-06  7.14D-09    92.8
                                                     4.77D-08  5.63D-09
 Grid integrated density:      49.000012394658
 Requested integration accuracy:   0.10E-06
 d= 0,ls=0.5,diis   116   -235.4635926160 -1.49D-09  2.07D-06  6.39D-09    93.6
                                                     4.04D-08  4.99D-09
 Grid integrated density:      49.000012394187
 Requested integration accuracy:   0.10E-06
 d= 0,ls=0.5,diis   117   -235.4635926172 -1.24D-09  1.95D-06  5.88D-09    94.4
                                                     5.33D-08  4.61D-09
 Grid integrated density:      49.000012393743
 Requested integration accuracy:   0.10E-06
 d= 0,ls=0.5,diis   118   -235.4635926183 -1.07D-09  1.84D-06  5.45D-09    95.2
                                                     3.25D-08  4.31D-09
 Grid integrated density:      49.000012393317
 Requested integration accuracy:   0.10E-06
 d= 0,ls=0.5,diis   119   -235.4635926194 -1.05D-09  1.70D-06  4.92D-09    96.0
                                                     4.30D-08  3.90D-09
 Grid integrated density:      49.000012392948
 Requested integration accuracy:   0.10E-06
 d= 0,ls=0.5,diis   120   -235.4635926201 -7.77D-10  1.60D-06  4.65D-09    96.8
                                                     2.55D-08  3.75D-09
 Grid integrated density:      49.000012392565
 Requested integration accuracy:   0.10E-06
 d= 0,ls=0.5,diis   121   -235.4635926210 -8.98D-10  1.54D-06  4.11D-09    97.6
                                                     3.30D-08  3.28D-09
 Grid integrated density:      49.000012392209
 Requested integration accuracy:   0.10E-06
 d= 0,ls=0.5,diis   122   -235.4635926218 -7.29D-10  1.44D-06  3.74D-09    98.4
                                                     3.18D-08  3.02D-09
 Grid integrated density:      49.000012391885
 Requested integration accuracy:   0.10E-06
 d= 0,ls=0.5,diis   123   -235.4635926224 -6.37D-10  1.35D-06  3.40D-09    99.2
                                                     3.17D-08  2.79D-09
 Grid integrated density:      49.000012391588
 Requested integration accuracy:   0.10E-06
 d= 0,ls=0.5,diis   124   -235.4635926229 -5.06D-10  1.29D-06  3.19D-09   100.0
                                                     1.45D-07  2.64D-09
 Grid integrated density:      49.000012391393
 Requested integration accuracy:   0.10E-06
 d= 0,ls=0.5,diis   125   -235.4635926225  3.52D-10  1.16D-06  4.24D-09   100.8
                                                     4.77D-08  3.72D-09
 Grid integrated density:      49.000012391132
 Requested integration accuracy:   0.10E-06
 d= 0,ls=0.5,diis   126   -235.4635926231 -5.12D-10  1.11D-06  3.83D-09   101.6
                                                     5.67D-08  3.32D-09
 Grid integrated density:      49.000012390837
 Requested integration accuracy:   0.10E-06
 d= 0,ls=0.5,diis   127   -235.4635926238 -7.92D-10  1.06D-06  3.01D-09   102.4
                                                     7.12D-08  2.58D-09
 Grid integrated density:      49.000012390529
 Requested integration accuracy:   0.10E-06
 d= 0,ls=0.5,diis   128   -235.4635926247 -8.30D-10  1.02D-06  2.09D-09   103.2
                                                     6.17D-08  1.73D-09
 Grid integrated density:      49.000012390248
 Requested integration accuracy:   0.10E-06
 d= 0,ls=0.5,diis   129   -235.4635926253 -6.10D-10  9.47D-07  1.51D-09   104.0
                                                     2.50D-08  1.21D-09
 Grid integrated density:      49.000012389999
 Requested integration accuracy:   0.10E-06
 d= 0,ls=0.5,diis   130   -235.4635926257 -3.72D-10  8.93D-07  1.26D-09   104.8
                                                     1.40D-08  9.86D-10
 Grid integrated density:      49.000012389776
 Requested integration accuracy:   0.10E-06
 d= 0,ls=0.5,diis   131   -235.4635926259 -2.88D-10  8.38D-07  1.09D-09   105.6
                                                     1.13D-08  8.54D-10
 Grid integrated density:      49.000012389566
 Requested integration accuracy:   0.10E-06
 d= 0,ls=0.5,diis   132   -235.4635926262 -2.70D-10  7.91D-07  9.18D-10   106.4
                                                     1.43D-08  7.07D-10
 Grid integrated density:      49.000012389380
 Requested integration accuracy:   0.10E-06
 d= 0,ls=0.5,diis   133   -235.4635926264 -2.09D-10  7.36D-07  8.08D-10   107.2
                                                     2.75D-08  6.22D-10
 Grid integrated density:      49.000012389221
 Requested integration accuracy:   0.10E-06
 d= 0,ls=0.5,diis   134   -235.4635926265 -1.20D-10  6.96D-07  8.05D-10   108.1
                                                     1.25D-08  6.39D-10
 Grid integrated density:      49.000012389046
 Requested integration accuracy:   0.10E-06
 d= 0,ls=0.5,diis   135   -235.4635926267 -1.90D-10  6.67D-07  6.74D-10   108.9
                                                     2.36D-08  5.27D-10
 Grid integrated density:      49.000012388874
 Requested integration accuracy:   0.10E-06
 d= 0,ls=0.5,diis   136   -235.4635926269 -1.50D-10  6.32D-07  5.83D-10   109.6
                                                     2.43D-08  4.59D-10
 Grid integrated density:      49.000012388709
 Requested integration accuracy:   0.10E-06
 d= 0,ls=0.5,diis   137   -235.4635926271 -1.92D-10  5.99D-07  4.19D-10   110.5
                                                     1.92D-08  3.12D-10
 Grid integrated density:      49.000012388547
 Requested integration accuracy:   0.10E-06
 d= 0,ls=0.5,diis   138   -235.4635926272 -1.50D-10  5.74D-07  3.01D-10   111.3
                                                     1.53D-08  2.10D-10
 Grid integrated density:      49.000012388401
 Requested integration accuracy:   0.10E-06
 d= 0,ls=0.5,diis   139   -235.4635926273 -1.22D-10  5.42D-07  2.19D-10   112.1
                                                     1.17D-08  1.42D-10
 Grid integrated density:      49.000012388259
 Requested integration accuracy:   0.10E-06
 d= 0,ls=0.5,diis   140   -235.4635926274 -9.78D-11  4.94D-07  1.63D-10   112.9
                                                     1.67D-08  9.78D-11
 Grid integrated density:      49.000012388149
 Requested integration accuracy:   0.10E-06
 d= 0,ls=0.5,diis   141   -235.4635926275 -5.58D-11  4.56D-07  1.57D-10   113.7
                                                     1.67D-08  9.92D-11
 Grid integrated density:      49.000012388051
 Requested integration accuracy:   0.10E-06
 d= 0,ls=0.5,diis   142   -235.4635926275 -4.66D-11  4.31D-07  1.53D-10   114.5
                                                     1.81D-08  1.01D-10
 Grid integrated density:      49.000012387964
 Requested integration accuracy:   0.10E-06
 d= 0,ls=0.5,diis   143   -235.4635926276 -3.90D-11  3.96D-07  1.53D-10   115.3
                                                     2.55D-08  1.06D-10
 Grid integrated density:      49.000012387889
 Requested integration accuracy:   0.10E-06
 d= 0,ls=0.5,diis   144   -235.4635926276 -1.94D-11  3.68D-07  1.72D-10   116.1
                                                     1.63D-08  1.30D-10
 Grid integrated density:      49.000012387813
 Requested integration accuracy:   0.10E-06
 d= 0,ls=0.5,diis   145   -235.4635926276 -2.77D-11  3.55D-07  1.72D-10   116.9
                                                     1.52D-08  1.32D-10
 Grid integrated density:      49.000012387719
 Requested integration accuracy:   0.10E-06
 d= 0,ls=0.5,diis   146   -235.4635926277 -6.07D-11  3.36D-07  1.16D-10   117.7
                                                     2.13D-08  8.18D-11
 Grid integrated density:      49.000012387656
 Requested integration accuracy:   0.10E-06
 d= 0,ls=0.5,diis   147   -235.4635926277 -1.23D-11  3.12D-07  1.33D-10   118.6
                                                     9.62D-09  1.03D-10
 Grid integrated density:      49.000012387582
 Requested integration accuracy:   0.10E-06
 d= 0,ls=0.5,diis   148   -235.4635926277 -2.85D-11  2.93D-07  1.17D-10   119.4
                                                     1.04D-08  9.09D-11
 Grid integrated density:      49.000012387517
 Requested integration accuracy:   0.10E-06
 d= 0,ls=0.5,diis   149   -235.4635926278 -3.25D-11  2.94D-07  9.17D-11   120.2
                                                     1.18D-08  7.04D-11
 Grid integrated density:      49.000012387447
 Requested integration accuracy:   0.10E-06
 d= 0,ls=0.5,diis   150   -235.4635926278 -2.25D-11  2.67D-07  8.36D-11   121.0
                                                     4.72D-09  6.61D-11
 Grid integrated density:      49.000012387384
 Requested integration accuracy:   0.10E-06
 d= 0,ls=0.5,diis   151   -235.4635926278 -2.20D-11  2.51D-07  7.17D-11   121.8
                                                     3.79D-09  5.64D-11
 Grid integrated density:      49.000012387326
 Requested integration accuracy:   0.10E-06
 d= 0,ls=0.5,diis   152   -235.4635926278 -1.76D-11  2.33D-07  6.35D-11   122.6
                                                     5.35D-09  5.02D-11
 Grid integrated density:      49.000012387274
 Requested integration accuracy:   0.10E-06
 d= 0,ls=0.5,diis   153   -235.4635926278 -1.31D-11  2.19D-07  5.95D-11   123.4
                                                     5.86D-09  4.77D-11
 Grid integrated density:      49.000012387227
 Requested integration accuracy:   0.10E-06
 d= 0,ls=0.5,diis   154   -235.4635926279 -1.13D-11  2.04D-07  5.65D-11   124.2
                                                     3.36D-09  4.61D-11
 Grid integrated density:      49.000012387179
 Requested integration accuracy:   0.10E-06
 d= 0,ls=0.5,diis   155   -235.4635926279 -1.27D-11  1.92D-07  4.99D-11   125.0
                                                     2.55D-09  4.05D-11
 Grid integrated density:      49.000012387133
 Requested integration accuracy:   0.10E-06
 d= 0,ls=0.5,diis   156   -235.4635926279 -1.29D-11  1.81D-07  4.17D-11   125.8
                                                     4.23D-09  3.30D-11
 Grid integrated density:      49.000012387085
 Requested integration accuracy:   0.10E-06
 d= 0,ls=0.5,diis   157   -235.4635926279 -1.24D-11  1.67D-07  3.27D-11   126.6
                                                     5.89D-09  2.49D-11
 Grid integrated density:      49.000012387049
 Requested integration accuracy:   0.10E-06
 d= 0,ls=0.5,diis   158   -235.4635926279 -5.46D-12  1.56D-07  3.34D-11   127.4
                                                     3.44D-09  2.61D-11
 Grid integrated density:      49.000012387015
 Requested integration accuracy:   0.10E-06
 d= 0,ls=0.5,diis   159   -235.4635926279 -6.37D-12  1.47D-07  3.15D-11   128.3
                                                     5.50D-09  2.47D-11
 Grid integrated density:      49.000012386984
 Requested integration accuracy:   0.10E-06
 d= 0,ls=0.5,diis   160   -235.4635926279 -4.09D-12  1.39D-07  3.18D-11   129.1
                                                     3.31D-09  2.55D-11
 Grid integrated density:      49.000012386954
 Requested integration accuracy:   0.10E-06
 d= 0,ls=0.5,diis   161   -235.4635926279 -4.72D-12  1.31D-07  2.98D-11   129.9
                                                     2.18D-09  2.41D-11
 Grid integrated density:      49.000012386923
 Requested integration accuracy:   0.10E-06
 d= 0,ls=0.5,diis   162   -235.4635926279 -6.31D-12  1.23D-07  2.59D-11   130.7
                                                     1.34D-09  2.09D-11
 Grid integrated density:      49.000012386894
 Requested integration accuracy:   0.10E-06
 d= 0,ls=0.5,diis   163   -235.4635926279 -4.66D-12  1.15D-07  2.30D-11   131.5
                                                     2.31D-09  1.86D-11
 Grid integrated density:      49.000012386868
 Requested integration accuracy:   0.10E-06
 d= 0,ls=0.5,diis   164   -235.4635926279 -4.04D-12  1.07D-07  2.11D-11   132.3
                                                     2.72D-09  1.72D-11
 Grid integrated density:      49.000012386843
 Requested integration accuracy:   0.10E-06
 d= 0,ls=0.5,diis   165   -235.4635926279 -4.04D-12  1.02D-07  1.84D-11   133.0
                                                     1.68D-09  1.51D-11
 Grid integrated density:      49.000012386819
 Requested integration accuracy:   0.10E-06
 d= 0,ls=0.5,diis   166   -235.4635926279 -3.87D-12  9.64D-08  1.60D-11   133.7
                                                     1.35D-09  1.32D-11
 Grid integrated density:      49.000012386795
 Requested integration accuracy:   0.10E-06


         Total DFT energy =     -235.463592627942
      One electron energy =     -778.329593194996
           Coulomb energy =      350.003902271228
          Exchange energy =      -35.249043396167
       Correlation energy =       -1.561444337070
 Nuclear repulsion energy =      229.686157167997

    Dispersion correction =       -0.013571138934

 Numeric. integr. density =       49.000012386795

     Total iterative time =    134.2s


 
                    DFT Final Alpha Molecular Orbital Analysis
                    ------------------------------------------
 
 Vector    1  Occ=1.000000D+00  E=-9.722581D+00
              MO Center= -8.1D-01,  9.6D-01,  1.0D+00, r^2= 5.0D-02
   Bfn.  Coefficient  Atom+Function         Bfn.  Coefficient  Atom+Function  
  ----- ------------  ---------------      ----- ------------  ---------------
    35      0.423842   4 C  s                36      0.358884   4 C  s         
    34      0.308478   4 C  s                37      0.057825   4 C  s         
 
 Vector    2  Occ=1.000000D+00  E=-9.722557D+00
              MO Center=  9.8D-01, -1.2D+00, -4.5D-01, r^2= 5.0D-02
   Bfn.  Coefficient  Atom+Function         Bfn.  Coefficient  Atom+Function  
  ----- ------------  ---------------      ----- ------------  ---------------
    53      0.423835   6 C  s                54      0.358886   6 C  s         
    52      0.308475   6 C  s                55      0.057794   6 C  s         
 
 Vector    3  Occ=1.000000D+00  E=-9.719591D+00
              MO Center=  2.5D+00, -1.0D+00, -7.5D-01, r^2= 2.9D-02
   Bfn.  Coefficient  Atom+Function         Bfn.  Coefficient  Atom+Function  
  ----- ------------  ---------------      ----- ------------  ---------------
    95      0.424192  12 C  s                96      0.359377  12 C  s         
    94      0.308771  12 C  s                97      0.057562  12 C  s         
 
 Vector    4  Occ=1.000000D+00  E=-9.719486D+00
              MO Center= -2.3D+00,  7.3D-01,  1.4D+00, r^2= 2.9D-02
   Bfn.  Coefficient  Atom+Function         Bfn.  Coefficient  Atom+Function  
  ----- ------------  ---------------      ----- ------------  ---------------
    71      0.424198   8 C  s                72      0.359381   8 C  s         
    70      0.308775   8 C  s                73      0.057563   8 C  s         
 
 Vector    5  Occ=1.000000D+00  E=-9.688297D+00
              MO Center= -2.3D-01,  3.5D-01, -7.6D-01, r^2= 4.8D-01
   Bfn.  Coefficient  Atom+Function         Bfn.  Coefficient  Atom+Function  
  ----- ------------  ---------------      ----- ------------  ---------------
     2      0.302421   1 C  s                17      0.297189   2 C  s         
     3      0.256554   1 C  s                18      0.252127   2 C  s         
     1      0.220222   1 C  s                16      0.216415   2 C  s         
     4      0.040993   1 C  s                19      0.040260   2 C  s         
 
 Vector    6  Occ=1.000000D+00  E=-9.687686D+00
              MO Center= -2.2D-01,  3.3D-01, -7.7D-01, r^2= 4.8D-01
   Bfn.  Coefficient  Atom+Function         Bfn.  Coefficient  Atom+Function  
  ----- ------------  ---------------      ----- ------------  ---------------
    17     -0.302657   2 C  s                 2      0.297429   1 C  s         
    18     -0.256104   2 C  s                 3      0.251669   1 C  s         
    16     -0.220235   2 C  s                 1      0.216428   1 C  s         
    19     -0.042342   2 C  s                 4      0.041634   1 C  s         
 
 Vector    7  Occ=1.000000D+00  E=-5.583117D-01
              MO Center= -2.6D-02,  4.1D-02, -9.3D-02, r^2= 3.7D+00
   Bfn.  Coefficient  Atom+Function         Bfn.  Coefficient  Atom+Function  
  ----- ------------  ---------------      ----- ------------  ---------------
    38      0.232614   4 C  s                56      0.232846   6 C  s         
     5      0.228977   1 C  s                20      0.229063   2 C  s         
    74      0.160891   8 C  s                98      0.161129  12 C  s         
    39      0.084187   4 C  s                57      0.084140   6 C  s         
     3     -0.071368   1 C  s                18     -0.071394   2 C  s         
 
 Vector    8  Occ=1.000000D+00  E=-5.300023D-01
              MO Center=  7.3D-02, -1.1D-01,  2.4D-01, r^2= 5.8D+00
   Bfn.  Coefficient  Atom+Function         Bfn.  Coefficient  Atom+Function  
  ----- ------------  ---------------      ----- ------------  ---------------
    38      0.261947   4 C  s                56     -0.261722   6 C  s         
    74      0.245652   8 C  s                98     -0.245871  12 C  s         
     5      0.089022   1 C  s                20     -0.088604   2 C  s         
    75      0.077286   8 C  s                99     -0.077343  12 C  s         
    36     -0.072013   4 C  s                54      0.071952   6 C  s         
 
 Vector    9  Occ=1.000000D+00  E=-4.742437D-01
              MO Center= -5.0D-02,  7.3D-02, -1.7D-01, r^2= 5.8D+00
   Bfn.  Coefficient  Atom+Function         Bfn.  Coefficient  Atom+Function  
  ----- ------------  ---------------      ----- ------------  ---------------
    74     -0.261017   8 C  s                98     -0.260892  12 C  s         
     5      0.250749   1 C  s                20      0.250927   2 C  s         
    75     -0.091639   8 C  s                99     -0.091625  12 C  s         
     3     -0.075701   1 C  s                18     -0.075744   2 C  s         
    72      0.071547   8 C  s                96      0.071512  12 C  s         
 
 Vector   10  Occ=1.000000D+00  E=-4.092421D-01
              MO Center=  4.4D-02, -6.6D-02,  1.5D-01, r^2= 6.9D+00
   Bfn.  Coefficient  Atom+Function         Bfn.  Coefficient  Atom+Function  
  ----- ------------  ---------------      ----- ------------  ---------------
    74      0.252159   8 C  s                98     -0.252014  12 C  s         
    38     -0.212143   4 C  s                56      0.212219   6 C  s         
     5     -0.151987   1 C  s                20      0.151749   2 C  s         
    75      0.087879   8 C  s                99     -0.088008  12 C  s         
    39     -0.076424   4 C  s                57      0.076542   6 C  s         
 
 Vector   11  Occ=1.000000D+00  E=-3.803056D-01
              MO Center=  2.1D-02, -3.1D-02,  7.2D-02, r^2= 5.6D+00
   Bfn.  Coefficient  Atom+Function         Bfn.  Coefficient  Atom+Function  
  ----- ------------  ---------------      ----- ------------  ---------------
    38      0.244684   4 C  s                56      0.244841   6 C  s         
    74     -0.173460   8 C  s                98     -0.173286  12 C  s         
     5     -0.136448   1 C  s                20     -0.136541   2 C  s         
     9      0.103623   1 C  pz               23     -0.086591   2 C  py        
    39      0.074354   4 C  s                57      0.074268   6 C  s         
 
 Vector   12  Occ=1.000000D+00  E=-2.989300D-01
              MO Center= -8.4D-02,  1.3D-01, -2.9D-01, r^2= 4.4D+00
   Bfn.  Coefficient  Atom+Function         Bfn.  Coefficient  Atom+Function  
  ----- ------------  ---------------      ----- ------------  ---------------
     5      0.233025   1 C  s                20     -0.233010   2 C  s         
    42     -0.132576   4 C  pz               38     -0.130002   4 C  s         
    56      0.129811   6 C  s                45     -0.103893   4 C  pz        
    32      0.096624   3 H  s                50     -0.096736   5 H  s         
    60      0.095813   6 C  pz               59     -0.093960   6 C  py        
 
 Vector   13  Occ=1.000000D+00  E=-2.625356D-01
              MO Center= -2.2D-02,  3.4D-02, -6.9D-02, r^2= 4.8D+00
   Bfn.  Coefficient  Atom+Function         Bfn.  Coefficient  Atom+Function  
  ----- ------------  ---------------      ----- ------------  ---------------
    41     -0.142522   4 C  py               24      0.140268   2 C  pz        
    60      0.133638   6 C  pz                8     -0.127215   1 C  py        
    44     -0.119570   4 C  py               63      0.112073   6 C  pz        
    27      0.105871   2 C  pz               77     -0.101118   8 C  py        
    11     -0.090618   1 C  py                7      0.088544   1 C  px        
 
 Vector   14  Occ=1.000000D+00  E=-2.303974D-01
              MO Center=  9.1D-02, -1.3D-01,  2.7D-01, r^2= 7.0D+00
   Bfn.  Coefficient  Atom+Function         Bfn.  Coefficient  Atom+Function  
  ----- ------------  ---------------      ----- ------------  ---------------
    77      0.162044   8 C  py               41      0.152801   4 C  py        
    80      0.134637   8 C  py              101      0.130518  12 C  py        
    44      0.127831   4 C  py               59      0.120401   6 C  py        
   102      0.113237  12 C  pz              104      0.109266  12 C  py        
    62      0.101827   6 C  py              105      0.092394  12 C  pz        
 
 Vector   15  Occ=1.000000D+00  E=-2.284589D-01
              MO Center=  5.6D-02, -8.4D-02,  1.9D-01, r^2= 6.8D+00
   Bfn.  Coefficient  Atom+Function         Bfn.  Coefficient  Atom+Function  
  ----- ------------  ---------------      ----- ------------  ---------------
    78      0.160952   8 C  pz                9     -0.143575   1 C  pz        
    42      0.140814   4 C  pz              101     -0.138448  12 C  py        
    81      0.133464   8 C  pz               59     -0.127095   6 C  py        
   104     -0.114129  12 C  py               45      0.108336   4 C  pz        
    23      0.100482   2 C  py              116      0.100815  15 H  s         
 
 Vector   16  Occ=1.000000D+00  E=-1.987922D-01
              MO Center= -6.8D-02,  8.7D-02, -1.9D-01, r^2= 6.7D+00
   Bfn.  Coefficient  Atom+Function         Bfn.  Coefficient  Atom+Function  
  ----- ------------  ---------------      ----- ------------  ---------------
    24      0.157470   2 C  pz               77      0.136670   8 C  py        
   102     -0.128822  12 C  pz               27      0.120062   2 C  pz        
    80      0.116072   8 C  py               76     -0.114465   8 C  px        
   105     -0.106759  12 C  pz                8     -0.104795   1 C  py        
    58     -0.103280   6 C  px                7      0.101683   1 C  px        
 
 Vector   17  Occ=1.000000D+00  E=-1.962463D-01
              MO Center=  5.8D-02, -8.6D-02,  1.9D-01, r^2= 9.0D+00
   Bfn.  Coefficient  Atom+Function         Bfn.  Coefficient  Atom+Function  
  ----- ------------  ---------------      ----- ------------  ---------------
    78      0.198377   8 C  pz               81      0.161395   8 C  pz        
   102     -0.143474  12 C  pz              116      0.133493  15 H  s         
   122     -0.132664  17 H  s               100     -0.126899  12 C  px        
     5      0.118780   1 C  s               105     -0.119352  12 C  pz        
    20     -0.118104   2 C  s               115      0.103483  15 H  s         
 
 Vector   18  Occ=1.000000D+00  E=-1.710472D-01
              MO Center=  5.4D-02, -8.6D-02,  2.1D-01, r^2= 6.6D+00
   Bfn.  Coefficient  Atom+Function         Bfn.  Coefficient  Atom+Function  
  ----- ------------  ---------------      ----- ------------  ---------------
    76     -0.179577   8 C  px               40      0.176023   4 C  px        
    58      0.171365   6 C  px               43      0.146152   4 C  px        
    79     -0.145627   8 C  px               61      0.144413   6 C  px        
   100     -0.144577  12 C  px              101     -0.124837  12 C  py        
   103     -0.117847  12 C  px              104     -0.101692  12 C  py        
 
 Vector   19  Occ=1.000000D+00  E=-1.629088D-01
              MO Center=  6.8D-02, -9.5D-02,  2.0D-01, r^2= 6.4D+00
   Bfn.  Coefficient  Atom+Function         Bfn.  Coefficient  Atom+Function  
  ----- ------------  ---------------      ----- ------------  ---------------
    58     -0.172232   6 C  px              100      0.172855  12 C  px        
    40      0.164925   4 C  px               76     -0.158209   8 C  px        
   103      0.143175  12 C  px               61     -0.138880   6 C  px        
    43      0.132399   4 C  px               79     -0.130657   8 C  px        
    77     -0.119681   8 C  py              110      0.107662  13 H  s         
 
 Vector   20  Occ=1.000000D+00  E=-1.539344D-01
              MO Center=  6.8D-02, -1.0D-01,  2.3D-01, r^2= 7.1D+00
   Bfn.  Coefficient  Atom+Function         Bfn.  Coefficient  Atom+Function  
  ----- ------------  ---------------      ----- ------------  ---------------
   102      0.142499  12 C  pz               78      0.140517   8 C  pz        
     9      0.136062   1 C  pz               42     -0.134645   4 C  pz        
    60     -0.130522   6 C  pz              113     -0.119309  14 H  s         
   119     -0.119340  16 H  s               105      0.115772  12 C  pz        
    68     -0.114984   7 H  s                92     -0.115304  11 H  s         
 
 Vector   21  Occ=1.000000D+00  E=-1.361889D-01
              MO Center=  1.0D-01, -1.5D-01,  3.1D-01, r^2= 6.4D+00
   Bfn.  Coefficient  Atom+Function         Bfn.  Coefficient  Atom+Function  
  ----- ------------  ---------------      ----- ------------  ---------------
    41      0.166739   4 C  py               44      0.138674   4 C  py        
    60      0.135956   6 C  pz               77     -0.130158   8 C  py        
    59      0.122363   6 C  py               89     -0.119838  10 H  s         
    86      0.118846   9 H  s                63      0.111585   6 C  pz        
   125     -0.110151  18 H  s               110      0.109385  13 H  s         
 
 Vector   22  Occ=1.000000D+00  E=-1.289084D-01
              MO Center= -1.7D-02,  2.1D-02, -2.0D-02, r^2= 5.4D+00
   Bfn.  Coefficient  Atom+Function         Bfn.  Coefficient  Atom+Function  
  ----- ------------  ---------------      ----- ------------  ---------------
     8      0.136840   1 C  py               41     -0.133099   4 C  py        
    23     -0.127511   2 C  py               59      0.126774   6 C  py        
     7     -0.121189   1 C  px               86     -0.117626   9 H  s         
    89     -0.115897  10 H  s                22      0.114750   2 C  px        
    44     -0.107855   4 C  py               24     -0.103889   2 C  pz        
 
 Vector   23  Occ=1.000000D+00  E=-1.036398D-01
              MO Center= -1.1D-01,  1.6D-01, -3.6D-01, r^2= 4.4D+00
   Bfn.  Coefficient  Atom+Function         Bfn.  Coefficient  Atom+Function  
  ----- ------------  ---------------      ----- ------------  ---------------
    42     -0.189350   4 C  pz                9      0.174298   1 C  pz        
    33     -0.170330   3 H  s                51      0.170343   5 H  s         
    45     -0.166089   4 C  pz               24     -0.154121   2 C  pz        
    32     -0.154151   3 H  s                50      0.154067   5 H  s         
    12      0.139582   1 C  pz               60      0.138171   6 C  pz        
 
 Vector   24  Occ=1.000000D+00  E=-3.329632D-02
              MO Center= -1.8D-01,  2.7D-01, -6.0D-01, r^2= 2.7D+00
   Bfn.  Coefficient  Atom+Function         Bfn.  Coefficient  Atom+Function  
  ----- ------------  ---------------      ----- ------------  ---------------
    22      0.218611   2 C  px                7      0.216787   1 C  px        
    25      0.203186   2 C  px               10      0.199296   1 C  px        
     8      0.170174   1 C  py               23      0.167444   2 C  py        
    11      0.155312   1 C  py               26      0.149540   2 C  py        
    14      0.144183   1 C  py               75      0.137841   8 C  s         
 
 Vector   25  Occ=1.000000D+00  E= 1.472419D-01
              MO Center=  1.7D-02, -2.9D-02,  6.5D-02, r^2= 9.6D+00
   Bfn.  Coefficient  Atom+Function         Bfn.  Coefficient  Atom+Function  
  ----- ------------  ---------------      ----- ------------  ---------------
    75      1.096159   8 C  s                99      1.092280  12 C  s         
   117     -0.698765  15 H  s               123     -0.699671  17 H  s         
    39      0.464504   4 C  s                57      0.463729   6 C  s         
    90     -0.417858  10 H  s                87     -0.412472   9 H  s         
   114     -0.301463  14 H  s               120     -0.298022  16 H  s         
 
 Vector   26  Occ=0.000000D+00  E= 1.715009D-01
              MO Center=  1.2D-01, -1.6D-01,  3.4D-01, r^2= 1.6D+01
   Bfn.  Coefficient  Atom+Function         Bfn.  Coefficient  Atom+Function  
  ----- ------------  ---------------      ----- ------------  ---------------
    99     -1.916352  12 C  s                75      1.904673   8 C  s         
   123      0.851818  17 H  s               117     -0.847222  15 H  s         
   120      0.809322  16 H  s               114     -0.803255  14 H  s         
    30      0.583917   2 C  pz               33     -0.560643   3 H  s         
    51      0.563339   5 H  s                13     -0.481058   1 C  px        
 
 Vector   27  Occ=0.000000D+00  E= 1.762999D-01
              MO Center= -8.5D-02,  1.2D-01, -2.5D-01, r^2= 7.0D+00
   Bfn.  Coefficient  Atom+Function         Bfn.  Coefficient  Atom+Function  
  ----- ------------  ---------------      ----- ------------  ---------------
    39      1.113707   4 C  s                57      1.106046   6 C  s         
    13     -0.533475   1 C  px               69     -0.483630   7 H  s         
    93     -0.483488  11 H  s                75      0.453913   8 C  s         
    33     -0.447602   3 H  s               114     -0.444039  14 H  s         
    51     -0.439510   5 H  s                99      0.439404  12 C  s         
 
 Vector   28  Occ=0.000000D+00  E= 1.883099D-01
              MO Center= -1.4D-01,  2.2D-01, -4.9D-01, r^2= 9.1D+00
   Bfn.  Coefficient  Atom+Function         Bfn.  Coefficient  Atom+Function  
  ----- ------------  ---------------      ----- ------------  ---------------
    33      1.274365   3 H  s                51      1.272485   5 H  s         
    69     -0.965914   7 H  s                93     -0.964266  11 H  s         
     6     -0.936422   1 C  s                21     -0.931096   2 C  s         
    57      0.653362   6 C  s                39      0.641955   4 C  s         
    30      0.556839   2 C  pz              120      0.521020  16 H  s         
 
 Vector   29  Occ=0.000000D+00  E= 2.022433D-01
              MO Center=  8.9D-02, -1.5D-01,  3.4D-01, r^2= 1.1D+01
   Bfn.  Coefficient  Atom+Function         Bfn.  Coefficient  Atom+Function  
  ----- ------------  ---------------      ----- ------------  ---------------
    39      1.840817   4 C  s                57     -1.829108   6 C  s         
    87     -1.400082   9 H  s                90      1.403303  10 H  s         
   111      1.009553  13 H  s               126     -1.000968  18 H  s         
    75     -0.933225   8 C  s                99      0.926358  12 C  s         
    30      0.536101   2 C  pz               47      0.506826   4 C  py        
 
 Vector   30  Occ=0.000000D+00  E= 2.077960D-01
              MO Center=  5.7D-02, -9.8D-02,  2.2D-01, r^2= 1.4D+01
   Bfn.  Coefficient  Atom+Function         Bfn.  Coefficient  Atom+Function  
  ----- ------------  ---------------      ----- ------------  ---------------
    75     -1.784678   8 C  s                99     -1.777089  12 C  s         
    39      1.672733   4 C  s                57      1.677361   6 C  s         
    90     -0.966914  10 H  s                87     -0.959325   9 H  s         
   114      0.741969  14 H  s               120      0.740360  16 H  s         
   117      0.566625  15 H  s               123      0.553666  17 H  s         
 
 Vector   31  Occ=0.000000D+00  E= 2.177336D-01
              MO Center=  1.8D-02, -3.0D-02,  5.8D-02, r^2= 1.5D+01
   Bfn.  Coefficient  Atom+Function         Bfn.  Coefficient  Atom+Function  
  ----- ------------  ---------------      ----- ------------  ---------------
   117      1.583856  15 H  s               123     -1.585579  17 H  s         
    33     -1.288581   3 H  s                51      1.287073   5 H  s         
   114     -1.216465  14 H  s               120      1.213866  16 H  s         
    84     -1.048496   8 C  pz               30      1.039953   2 C  pz        
    15     -1.011123   1 C  pz              108      0.839419  12 C  pz        
 
 Vector   32  Occ=0.000000D+00  E= 2.281501D-01
              MO Center=  2.2D-01, -2.9D-01,  6.8D-01, r^2= 1.3D+01
   Bfn.  Coefficient  Atom+Function         Bfn.  Coefficient  Atom+Function  
  ----- ------------  ---------------      ----- ------------  ---------------
   123      1.499918  17 H  s               117      1.484083  15 H  s         
    87      1.265509   9 H  s                90      1.242870  10 H  s         
    47     -1.231051   4 C  py               66      1.008182   6 C  pz        
    69     -0.959781   7 H  s                93     -0.948684  11 H  s         
    84     -0.918853   8 C  pz              108     -0.750924  12 C  pz        
 
 Vector   33  Occ=0.000000D+00  E= 2.395314D-01
              MO Center= -1.2D-01,  2.4D-01, -5.0D-01, r^2= 1.3D+01
   Bfn.  Coefficient  Atom+Function         Bfn.  Coefficient  Atom+Function  
  ----- ------------  ---------------      ----- ------------  ---------------
   120      1.523814  16 H  s               114      1.484097  14 H  s         
   117     -1.031776  15 H  s               123     -0.979486  17 H  s         
   108      0.951179  12 C  pz               84      0.877696   8 C  pz        
   126     -0.876549  18 H  s                 6      0.862714   1 C  s         
    21      0.865763   2 C  s               111     -0.796351  13 H  s         
 
 Vector   34  Occ=0.000000D+00  E= 2.405311D-01
              MO Center=  1.1D-01, -1.3D-01,  2.6D-02, r^2= 1.2D+01
   Bfn.  Coefficient  Atom+Function         Bfn.  Coefficient  Atom+Function  
  ----- ------------  ---------------      ----- ------------  ---------------
   126     -1.543098  18 H  s                90     -1.464591  10 H  s         
   111      1.457745  13 H  s                30      1.423315   2 C  pz        
    51      1.376974   5 H  s                87      1.310016   9 H  s         
   107      1.302236  12 C  py               33     -1.251954   3 H  s         
    47     -1.217308   4 C  py               83      1.199133   8 C  py        
 
 Vector   35  Occ=0.000000D+00  E= 2.425733D-01
              MO Center=  2.2D-03, -1.3D-01,  4.8D-01, r^2= 1.2D+01
   Bfn.  Coefficient  Atom+Function         Bfn.  Coefficient  Atom+Function  
  ----- ------------  ---------------      ----- ------------  ---------------
   111      1.832373  13 H  s               126      1.718615  18 H  s         
    47     -1.527650   4 C  py               83      1.399179   8 C  py        
    87      1.306568   9 H  s               107     -1.234000  12 C  py        
    90      1.191506  10 H  s                66      1.122072   6 C  pz        
    69     -1.123159   7 H  s                33     -1.096147   3 H  s         
 
 Vector   36  Occ=0.000000D+00  E= 2.706690D-01
              MO Center= -3.3D-01,  5.0D-01, -1.1D+00, r^2= 1.1D+01
[...]
    75      2.247166   8 C  s                99      2.238980  12 C  s         
 
 Vector  111  Occ=0.000000D+00  E= 2.851020D+00
              MO Center=  1.1D-01, -1.6D-01,  3.5D-01, r^2= 9.2D+00
   Bfn.  Coefficient  Atom+Function         Bfn.  Coefficient  Atom+Function  
  ----- ------------  ---------------      ----- ------------  ---------------
    75     -3.662115   8 C  s                99      3.673991  12 C  s         
    74      3.410470   8 C  s                98     -3.422266  12 C  s         
    73     -2.487680   8 C  s                97      2.495995  12 C  s         
    15      1.635473   1 C  pz                6      1.440741   1 C  s         
    21     -1.427426   2 C  s                39     -1.333221   4 C  s         
 
 Vector  112  Occ=0.000000D+00  E= 2.943730D+00
              MO Center= -2.4D-01,  3.5D-01, -8.1D-01, r^2= 2.6D+00
   Bfn.  Coefficient  Atom+Function         Bfn.  Coefficient  Atom+Function  
  ----- ------------  ---------------      ----- ------------  ---------------
     6      7.834262   1 C  s                21     -7.785763   2 C  s         
     5     -4.656603   1 C  s                20      4.638273   2 C  s         
     4      2.893335   1 C  s                19     -2.884402   2 C  s         
    14     -2.510162   1 C  py               29     -2.173783   2 C  py        
    13      1.971837   1 C  px               30     -1.965595   2 C  pz        
 
 Vector  113  Occ=0.000000D+00  E= 2.948451D+00
              MO Center=  1.0D-01, -1.5D-01,  3.6D-01, r^2= 7.0D+00
   Bfn.  Coefficient  Atom+Function         Bfn.  Coefficient  Atom+Function  
  ----- ------------  ---------------      ----- ------------  ---------------
    39      4.547400   4 C  s                57      4.550613   6 C  s         
    75     -4.245743   8 C  s                99     -4.199906  12 C  s         
    38     -2.921221   4 C  s                56     -2.916889   6 C  s         
    74      2.655614   8 C  s                98      2.650385  12 C  s         
    37      1.977525   4 C  s                55      1.975704   6 C  s         
 
 Vector  114  Occ=0.000000D+00  E= 3.031699D+00
              MO Center=  1.0D-01, -1.5D-01,  3.6D-01, r^2= 4.8D+00
   Bfn.  Coefficient  Atom+Function         Bfn.  Coefficient  Atom+Function  
  ----- ------------  ---------------      ----- ------------  ---------------
    39      8.072853   4 C  s                57     -8.052642   6 C  s         
    15     -4.774380   1 C  pz               38     -4.178261   4 C  s         
    56      4.166987   6 C  s                30      3.081164   2 C  pz        
    29     -2.980373   2 C  py               37      2.603775   4 C  s         
    55     -2.596008   6 C  s                28      2.159045   2 C  px        
 
 Vector  115  Occ=0.000000D+00  E= 1.172025D+01
              MO Center= -2.0D-01,  3.0D-01, -6.7D-01, r^2= 1.5D+00
   Bfn.  Coefficient  Atom+Function         Bfn.  Coefficient  Atom+Function  
  ----- ------------  ---------------      ----- ------------  ---------------
     4     -2.258562   1 C  s                19     -2.260058   2 C  s         
     3      2.204613   1 C  s                18      2.206320   2 C  s         
     5      1.902215   1 C  s                20      1.903006   2 C  s         
     6     -1.197069   1 C  s                21     -1.195224   2 C  s         
     2     -1.159206   1 C  s                17     -1.160119   2 C  s         
 
 Vector  116  Occ=0.000000D+00  E= 1.184177D+01
              MO Center=  1.2D-01, -1.6D-01,  3.3D-01, r^2= 8.0D+00
   Bfn.  Coefficient  Atom+Function         Bfn.  Coefficient  Atom+Function  
  ----- ------------  ---------------      ----- ------------  ---------------
    97      2.399981  12 C  s                73     -2.378066   8 C  s         
    96     -2.324651  12 C  s                72      2.303502   8 C  s         
    98     -2.099860  12 C  s                74      2.080499   8 C  s         
    99      1.497343  12 C  s                75     -1.482846   8 C  s         
    95      1.217211  12 C  s                71     -1.206149   8 C  s         
 
 Vector  117  Occ=0.000000D+00  E= 1.185820D+01
              MO Center=  5.6D-02, -1.1D-01,  2.7D-01, r^2= 7.5D+00
   Bfn.  Coefficient  Atom+Function         Bfn.  Coefficient  Atom+Function  
  ----- ------------  ---------------      ----- ------------  ---------------
    73     -2.306670   8 C  s                97     -2.285186  12 C  s         
    72      2.227191   8 C  s                96      2.206437  12 C  s         
    74      2.038525   8 C  s                98      2.019496  12 C  s         
    75     -1.561655   8 C  s                99     -1.547111  12 C  s         
    71     -1.164597   8 C  s                95     -1.153735  12 C  s         
 
 Vector  118  Occ=0.000000D+00  E= 1.188690D+01
              MO Center=  8.1D-02, -1.2D-01,  2.8D-01, r^2= 3.0D+00
   Bfn.  Coefficient  Atom+Function         Bfn.  Coefficient  Atom+Function  
  ----- ------------  ---------------      ----- ------------  ---------------
    37     -2.395375   4 C  s                55     -2.393548   6 C  s         
    36      2.286002   4 C  s                54      2.284317   6 C  s         
    38      2.169443   4 C  s                56      2.167739   6 C  s         
    39     -1.929507   4 C  s                57     -1.928828   6 C  s         
    35     -1.193446   4 C  s                53     -1.192570   6 C  s         
 
 Vector  119  Occ=0.000000D+00  E= 1.195671D+01
              MO Center=  8.7D-02, -1.3D-01,  2.9D-01, r^2= 3.0D+00
   Bfn.  Coefficient  Atom+Function         Bfn.  Coefficient  Atom+Function  
  ----- ------------  ---------------      ----- ------------  ---------------
    39      2.677880   4 C  s                57     -2.678443   6 C  s         
    37      2.531505   4 C  s                55     -2.533006   6 C  s         
    38     -2.433283   4 C  s                56      2.434714   6 C  s         
    36     -2.345781   4 C  s                54      2.347161   6 C  s         
    15     -1.212860   1 C  pz               35      1.216969   4 C  s         
 
 Vector  120  Occ=0.000000D+00  E= 1.214184D+01
              MO Center= -2.3D-01,  3.4D-01, -7.6D-01, r^2= 8.2D-01
   Bfn.  Coefficient  Atom+Function         Bfn.  Coefficient  Atom+Function  
  ----- ------------  ---------------      ----- ------------  ---------------
     6      3.375201   1 C  s                21     -3.374249   2 C  s         
     5     -2.644024   1 C  s                20      2.642055   2 C  s         
     4      2.588330   1 C  s                19     -2.586305   2 C  s         
     3     -2.365162   1 C  s                18      2.363419   2 C  s         
    30     -1.347470   2 C  pz                2      1.222191   1 C  s         
 
 Vector  121  Occ=0.000000D+00  E= 6.267573D+01
              MO Center= -2.0D-01,  2.9D-01, -6.6D-01, r^2= 1.2D+00
   Bfn.  Coefficient  Atom+Function         Bfn.  Coefficient  Atom+Function  
  ----- ------------  ---------------      ----- ------------  ---------------
     2      1.969499   1 C  s                17      1.971125   2 C  s         
     3     -1.492216   1 C  s                18     -1.493433   2 C  s         
     1     -1.168324   1 C  s                16     -1.169290   2 C  s         
     4      0.991320   1 C  s                19      0.992033   2 C  s         
     5     -0.791797   1 C  s                20     -0.792194   2 C  s         
 
 Vector  122  Occ=0.000000D+00  E= 6.278968D+01
              MO Center=  1.3D-01, -1.6D-01,  3.3D-01, r^2= 7.8D+00
   Bfn.  Coefficient  Atom+Function         Bfn.  Coefficient  Atom+Function  
  ----- ------------  ---------------      ----- ------------  ---------------
    95     -2.095512  12 C  s                71      2.071983   8 C  s         
    96      1.597702  12 C  s                72     -1.579743   8 C  s         
    94      1.238678  12 C  s                70     -1.224775   8 C  s         
    97     -1.071799  12 C  s                73      1.059726   8 C  s         
    98      0.888543  12 C  s                74     -0.878480   8 C  s         
 
 Vector  123  Occ=0.000000D+00  E= 6.280391D+01
              MO Center=  4.7D-02, -1.0D-01,  2.5D-01, r^2= 7.0D+00
   Bfn.  Coefficient  Atom+Function         Bfn.  Coefficient  Atom+Function  
  ----- ------------  ---------------      ----- ------------  ---------------
    71      1.940024   8 C  s                95      1.916003  12 C  s         
    72     -1.481108   8 C  s                96     -1.462785  12 C  s         
    70     -1.146224   8 C  s                94     -1.132027  12 C  s         
    73      0.995537   8 C  s                97      0.983220  12 C  s         
    74     -0.830544   8 C  s                98     -0.820233  12 C  s         
 
 Vector  124  Occ=0.000000D+00  E= 6.283263D+01
              MO Center=  8.2D-02, -1.2D-01,  2.8D-01, r^2= 3.0D+00
   Bfn.  Coefficient  Atom+Function         Bfn.  Coefficient  Atom+Function  
  ----- ------------  ---------------      ----- ------------  ---------------
    35      1.990308   4 C  s                53      1.988504   6 C  s         
    36     -1.522031   4 C  s                54     -1.520644   6 C  s         
    34     -1.174981   4 C  s                52     -1.173917   6 C  s         
    37      1.038512   4 C  s                55      1.037541   6 C  s         
    38     -0.896382   4 C  s                56     -0.895523   6 C  s         
 
 Vector  125  Occ=0.000000D+00  E= 6.290501D+01
              MO Center=  8.6D-02, -1.3D-01,  2.9D-01, r^2= 2.6D+00
   Bfn.  Coefficient  Atom+Function         Bfn.  Coefficient  Atom+Function  
  ----- ------------  ---------------      ----- ------------  ---------------
    35      2.091967   4 C  s                53     -2.093662   6 C  s         
    36     -1.610208   4 C  s                54      1.611506   6 C  s         
    34     -1.232146   4 C  s                52      1.233145   6 C  s         
    37      1.130280   4 C  s                39      1.127630   4 C  s         
    55     -1.131191   6 C  s                57     -1.128092   6 C  s         
 
 Vector  126  Occ=0.000000D+00  E= 6.309273D+01
              MO Center= -2.3D-01,  3.4D-01, -7.6D-01, r^2= 5.4D-01
   Bfn.  Coefficient  Atom+Function         Bfn.  Coefficient  Atom+Function  
  ----- ------------  ---------------      ----- ------------  ---------------
     2      2.103788   1 C  s                17     -2.102283   2 C  s         
     3     -1.629827   1 C  s                18      1.628648   2 C  s         
     6      1.450675   1 C  s                21     -1.450293   2 C  s         
     1     -1.234638   1 C  s                16      1.233756   2 C  s         
     4      1.164470   1 C  s                19     -1.163583   2 C  s         
 

   alpha - beta orbital overlaps 
   ----------------------------- 


   alpha      1      2      3      4      5      6      7      8      9     10
    beta      1      2      3      4      5      6      7      8      9     10
 overlap   1.000  1.000  1.000  1.000  1.000  1.000  1.000  1.000  1.000  1.000


   alpha     11     12     13     14     15     16     17     18     19     20
    beta     11     12     13     14     15     16     17     18     19     20
 overlap   1.000  1.000  1.000  1.000  1.000  1.000  1.000  0.999  1.000  0.999


   alpha     21     22     23     24     25     26     27     28     29     30
    beta     21     22     23     24     25     26     27     28     29     30
 overlap   1.000  1.000  1.000  0.999  0.974  0.995  0.953  0.984  0.996  0.983


   alpha     31     32     33     34     35     36     37     38     39     40
    beta     31     32     33     34     35     36     37     38     39     40
 overlap   0.990  0.958  0.909  0.995  0.911  0.999  0.998  0.999  0.998  0.977


   alpha     41     42     43     44     45     46     47     48     49     50
    beta     41     42     43     44     45     46     47     48     49     50
 overlap   0.977  0.999  0.999  0.998  1.000  0.999  0.998  0.996  0.996  0.998


   alpha     51     52     53     54     55     56     57     58     59     60
    beta     51     52     53     54     55     56     57     59     58     60
 overlap   0.999  0.985  0.995  0.993  0.988  0.979  0.984  0.994  0.997  0.995


   alpha     61     62     63     64     65     66     67     68     69     70
    beta     61     62     63     64     65     66     67     68     69     70
 overlap   0.850  0.846  0.994  0.999  0.998  0.999  0.998  0.999  0.999  0.999


   alpha     71     72     73     74     75     76     77     78     79     80
    beta     71     72     73     74     75     76     77     78     79     80
 overlap   1.000  1.000  1.000  1.000  1.000  1.000  0.986  0.986  1.000  0.999


   alpha     81     82     83     84     85     86     87     88     89     90
    beta     81     82     83     84     85     86     87     88     89     90
 overlap   0.991  0.999  0.994  0.988  0.991  0.996  0.999  0.993  0.993  1.000


   alpha     91     92     93     94     95     96     97     98     99    100
    beta     91     92     93     94     95     96     97     98     99    100
 overlap   1.000  1.000  0.999  1.000  1.000  1.000  1.000  1.000  1.000  1.000


   alpha    101    102    103    104    105    106    107    108    109    110
    beta    102    101    103    104    105    106    107    108    109    110
 overlap   0.981  0.982  0.999  1.000  1.000  1.000  1.000  1.000  0.999  1.000


   alpha    111    112    113    114    115    116    117    118    119    120
    beta    111    112    113    114    115    116    117    118    119    120
 overlap   1.000  1.000  1.000  1.000  1.000  1.000  1.000  1.000  1.000  1.000


   alpha    121    122    123    124    125    126
    beta    121    122    123    124    125    126
 overlap   1.000  1.000  1.000  1.000  1.000  1.000

     --------------------------
     Expectation value of S2:  
     --------------------------
      <S2> =      0.7509 (Exact =     0.7500)
 

 center of mass
 --------------
 x =  -0.01049745 y =   0.01582267 z =  -0.03551111

 moments of inertia (a.u.)
 ------------------
         583.174990490247         358.759894904275         339.926544177057
         358.759894904275        1062.598186838944        -165.238641766414
         339.926544177057        -165.238641766414        1024.184556638268
 
     Multipole analysis of the density
     ---------------------------------
 
     L   x y z        total         alpha         beta         nuclear
     -   - - -        -----         -----         ----         -------
     0   0 0 0     -1.000000    -25.000000    -24.000000     48.000000
 
     1   1 0 0     -0.034140     -0.036646      0.002506      0.000000
     1   0 1 0      0.056632      0.061319     -0.004687     -0.000000
     1   0 0 1     -0.126939     -0.136699      0.009760     -0.000000
 
     2   2 0 0    -49.823739   -263.744539   -248.728830    462.649630
     2   1 1 0      6.235920    113.365987    106.993212   -214.123279
     2   1 0 1      6.104710    107.436086    102.152090   -203.483467
     2   0 2 0    -41.705684   -111.690525   -101.877400    171.862241
     2   0 1 1     -3.240383    -51.982882    -48.722117     97.464616
     2   0 0 2    -41.728908   -124.245315   -114.601311    197.117718
 

 Task  times  cpu:      131.6s     wall:      134.4s
 
 
                                NWChem Input Module
                                -------------------
 
 
 Summary of allocated global arrays
-----------------------------------
  No active global arrays



                         GA Statistics for process    0
                         ------------------------------

       create   destroy   get      put      acc     scatter   gather  read&inc
calls: 3241     3241     8.46e+05 1.96e+04 6.34e+05    0        0     3842     
number of processes/call 7.57e+00 8.41e+01 6.13e+00 0.00e+00 0.00e+00
bytes total:             1.25e+09 1.60e+08 6.59e+08 0.00e+00 0.00e+00 3.07e+04
bytes remote:            1.01e+09 8.24e+07 5.56e+08 0.00e+00 0.00e+00 0.00e+00
Max memory consumed for GA by this process: 1165312 bytes
 
 
 
                                     CITATION
                                     --------
                Please cite the following reference when publishing
                           results obtained with NWChem:
 
          E. Apr, E. J. Bylaska, W. A. de Jong, N. Govind, K. Kowalski,
       T. P. Straatsma, M. Valiev, H. J. J. van Dam, Y. Alexeev, J. Anchell,
       V. Anisimov, F. W. Aquino, R. Atta-Fynn, J. Autschbach, N. P. Bauman,
     J. C. Becca, D. E. Bernholdt, K. Bhaskaran-Nair, S. Bogatko, P. Borowski,
        J. Boschen, J. Brabec, A. Bruner, E. Caut, Y. Chen, G. N. Chuev,
      C. J. Cramer, J. Daily, M. J. O. Deegan, T. H. Dunning Jr., M. Dupuis,
   K. G. Dyall, G. I. Fann, S. A. Fischer, A. Fonari, H. Frchtl, L. Gagliardi,
      J. Garza, N. Gawande, S. Ghosh, K. Glaesemann, A. W. Gtz, J. Hammond,
       V. Helms, E. D. Hermes, K. Hirao, S. Hirata, M. Jacquelin, L. Jensen,
   B. G. Johnson, H. Jnsson, R. A. Kendall, M. Klemm, R. Kobayashi, V. Konkov,
      S. Krishnamoorthy, M. Krishnan, Z. Lin, R. D. Lins, R. J. Littlefield,
      A. J. Logsdail, K. Lopata, W. Ma, A. V. Marenich, J. Martin del Campo,
   D. Mejia-Rodriguez, J. E. Moore, J. M. Mullin, T. Nakajima, D. R. Nascimento,
    J. A. Nichols, P. J. Nichols, J. Nieplocha, A. Otero-de-la-Roza, B. Palmer,
    A. Panyala, T. Pirojsirikul, B. Peng, R. Peverati, J. Pittner, L. Pollack,
   R. M. Richard, P. Sadayappan, G. C. Schatz, W. A. Shelton, D. W. Silverstein,
   D. M. A. Smith, T. A. Soares, D. Song, M. Swart, H. L. Taylor, G. S. Thomas,
            V. Tipparaju, D. G. Truhlar, K. Tsemekhman, T. Van Voorhis,
     . Vzquez-Mayagoitia, P. Verma, O. Villa, A. Vishnu, K. D. Vogiatzis,
        D. Wang, J. H. Weare, M. J. Williamson, T. L. Windus, K. Woliski,
        A. T. Wong, Q. Wu, C. Yang, Q. Yu, M. Zacharias, Z. Zhang, Y. Zhao,
                                and R. J. Harrison
                        "NWChem: Past, present, and future
                         J. Chem. Phys. 152, 184102 (2020)
                               doi:10.1063/5.0004997
 
                                      AUTHORS
                                      -------
     E. Apra, E. J. Bylaska, N. Govind, K. Kowalski, M. Valiev, W. A. de Jong,
      T. P. Straatsma, H. J. J. van Dam, D. Wang, T. L. Windus, N. P. Bauman,
       A. Panyala, J. Hammond, J. Autschbach, K. Bhaskaran-Nair, J. Brabec,
    K. Lopata, S. A. Fischer, S. Krishnamoorthy, M. Jacquelin, W. Ma, M. Klemm,
       O. Villa, Y. Chen, V. Anisimov, F. Aquino, S. Hirata, M. T. Hackler,
           Eric Hermes, L. Jensen, J. E. Moore, J. C. Becca, V. Konjkov,
            D. Mejia-Rodriguez, T. Risthaus, M. Malagoli, A. Marenich,
   A. Otero-de-la-Roza, J. Mullin, P. Nichols, R. Peverati, J. Pittner, Y. Zhao,
        P.-D. Fan, A. Fonari, M. J. Williamson, R. J. Harrison, J. R. Rehr,
      M. Dupuis, D. Silverstein, D. M. A. Smith, J. Nieplocha, V. Tipparaju,
      M. Krishnan, B. E. Van Kuiken, A. Vazquez-Mayagoitia, M. Swart, Q. Wu,
   T. Van Voorhis, A. A. Auer, M. Nooijen, L. D. Crosby, E. Brown, G. Cisneros,
     G. I. Fann, H. Fruchtl, J. Garza, K. Hirao, R. A. Kendall, J. A. Nichols,
       K. Tsemekhman, K. Wolinski, J. Anchell, D. E. Bernholdt, P. Borowski,
       T. Clark, D. Clerc, H. Dachsel, M. J. O. Deegan, K. Dyall, D. Elwood,
      E. Glendening, M. Gutowski, A. C. Hess, J. Jaffe, B. G. Johnson, J. Ju,
        R. Kobayashi, R. Kutteh, Z. Lin, R. Littlefield, X. Long, B. Meng,
      T. Nakajima, S. Niu, L. Pollack, M. Rosing, K. Glaesemann, G. Sandrone,
      M. Stave, H. Taylor, G. Thomas, J. H. van Lenthe, A. T. Wong, Z. Zhang.

 Total times  cpu:      131.6s     wall:      134.5s
