 
             Northwest Computational Chemistry Package (NWChem) 7.0.0
             --------------------------------------------------------
 
 
                    Environmental Molecular Sciences Laboratory
                       Pacific Northwest National Laboratory
                                Richland, WA 99352
 
                              Copyright (c) 1994-2020
                       Pacific Northwest National Laboratory
                            Battelle Memorial Institute
 
             NWChem is an open-source computational chemistry package
                        distributed under the terms of the
                      Educational Community License (ECL) 2.0
             A copy of the license is included with this distribution
                              in the LICENSE.TXT file
 
                                  ACKNOWLEDGMENT
                                  --------------

            This software and its documentation were developed at the
            EMSL at Pacific Northwest National Laboratory, a multiprogram
            national laboratory, operated for the U.S. Department of Energy
            by Battelle under Contract Number DE-AC05-76RL01830. Support
            for this work was provided by the Department of Energy Office
            of Biological and Environmental Research, Office of Basic
            Energy Sciences, and the Office of Advanced Scientific Computing.


                                NWChem Input Module
                                -------------------
 
 
 Summary of "ao basis" -> "" (spherical)
 ------------------------------------------------------------------------------
       Tag                 Description            Shells   Functions and Types
 ---------------- ------------------------------  ------  ---------------------
 *                        ahlrichs_vtz                on all atoms 



 Scaling coordinates for geometry "geometry" by  1.889725989
 (inverse scale =  0.529177249)

 
 
                             Geometry "geometry" -> ""
                             -------------------------
 
 Output coordinates in angstroms (scale by  1.889725989 to convert to a.u.)
 
  No.       Tag          Charge          X              Y              Z
 ---- ---------------- ---------- -------------- -------------- --------------
    1 C                    6.0000    -0.42652649     0.22027403     0.46991877
    2 C                    6.0000     0.42652213    -0.22026973    -0.46992663
    3 H                    1.0000    -0.51899301     1.30267594     0.63576438
    4 C                    6.0000    -1.30998561    -0.65127726     1.32484504
    5 C                    6.0000     1.30998859     0.65128282    -1.32484446
    6 H                    1.0000     0.51899042    -1.30267212    -0.63576792
    7 H                    1.0000    -1.10348887    -1.71196874     1.10553476
    8 C                    6.0000    -2.81075841    -0.35823353     1.12121296
    9 H                    1.0000    -1.06025319    -0.49723646     2.39071501
   10 H                    1.0000    -3.10663368    -0.54949836     0.07922274
   11 H                    1.0000    -3.04228590     0.69430577     1.34728322
   12 H                    1.0000    -3.43033768    -0.98831887     1.77684293
   13 H                    1.0000     1.10349559     1.71197461    -1.10553812
   14 H                    1.0000     1.06026037     0.49723959    -2.39071619
   15 C                    6.0000     2.81075825     0.35822549    -1.12120882
   16 H                    1.0000     3.10663119     0.54950226    -0.07921898
   17 H                    1.0000     3.43034587     0.98830276    -1.77683909
   18 H                    1.0000     3.04227823    -0.69431724    -1.34726413
 
      Atomic Mass 
      ----------- 
 
      C                 12.000000
      H                  1.007825
 

 Effective nuclear repulsion energy (a.u.)     225.4618349369

            Nuclear Dipole moment (a.u.) 
            ----------------------------
        X                 Y               Z
 ---------------- ---------------- ----------------
    -0.0000000000    -0.0000000000     0.0000000000
 
 
            XYZ format geometry
            -------------------
    18
 geometry
 C                    -0.42652649     0.22027403     0.46991877
 C                     0.42652213    -0.22026973    -0.46992663
 H                    -0.51899301     1.30267594     0.63576438
 C                    -1.30998561    -0.65127726     1.32484504
 C                     1.30998859     0.65128282    -1.32484446
 H                     0.51899042    -1.30267212    -0.63576792
 H                    -1.10348887    -1.71196874     1.10553476
 C                    -2.81075841    -0.35823353     1.12121296
 H                    -1.06025319    -0.49723646     2.39071501
 H                    -3.10663368    -0.54949836     0.07922274
 H                    -3.04228590     0.69430577     1.34728322
 H                    -3.43033768    -0.98831887     1.77684293
 H                     1.10349559     1.71197461    -1.10553812
 H                     1.06026037     0.49723959    -2.39071619
 C                     2.81075825     0.35822549    -1.12120882
 H                     3.10663119     0.54950226    -0.07921898
 H                     3.43034587     0.98830276    -1.77683909
 H                     3.04227823    -0.69431724    -1.34726413
 
 ==============================================================================
                                internuclear distances
 ------------------------------------------------------------------------------
       center one      |      center two      | atomic units |  angstroms
 ------------------------------------------------------------------------------
    2 C                |   1 C                |     2.53891  |     1.34353
    3 H                |   1 C                |     2.07668  |     1.09893
    4 C                |   1 C                |     2.84779  |     1.50698
    5 C                |   2 C                |     2.84779  |     1.50698
    6 H                |   2 C                |     2.07668  |     1.09893
    7 H                |   4 C                |     2.08368  |     1.10264
    8 C                |   4 C                |     2.91512  |     1.54261
    9 H                |   4 C                |     2.08913  |     1.10552
   10 H                |   8 C                |     2.07859  |     1.09994
   11 H                |   8 C                |     2.08089  |     1.10116
   12 H                |   8 C                |     2.07933  |     1.10033
   13 H                |   5 C                |     2.08368  |     1.10263
   14 H                |   5 C                |     2.08913  |     1.10552
   15 C                |   5 C                |     2.91512  |     1.54261
   16 H                |  15 C                |     2.07859  |     1.09994
   17 H                |  15 C                |     2.07933  |     1.10034
   18 H                |  15 C                |     2.08089  |     1.10116
 ------------------------------------------------------------------------------
                         number of included internuclear distances:         17
 ==============================================================================



 ==============================================================================
                                 internuclear angles
 ------------------------------------------------------------------------------
        center 1       |       center 2       |       center 3       |  degrees
 ------------------------------------------------------------------------------
    2 C                |   1 C                |   3 H                |   118.81
    2 C                |   1 C                |   4 C                |   125.41
    3 H                |   1 C                |   4 C                |   115.77
    1 C                |   2 C                |   5 C                |   125.41
    1 C                |   2 C                |   6 H                |   118.81
    5 C                |   2 C                |   6 H                |   115.77
    1 C                |   4 C                |   7 H                |   109.49
    1 C                |   4 C                |   8 C                |   112.68
    1 C                |   4 C                |   9 H                |   109.51
    7 H                |   4 C                |   8 C                |   109.80
    7 H                |   4 C                |   9 H                |   106.47
    8 C                |   4 C                |   9 H                |   108.70
    2 C                |   5 C                |  13 H                |   109.49
    2 C                |   5 C                |  14 H                |   109.51
    2 C                |   5 C                |  15 C                |   112.68
   13 H                |   5 C                |  14 H                |   106.47
   13 H                |   5 C                |  15 C                |   109.80
   14 H                |   5 C                |  15 C                |   108.70
    4 C                |   8 C                |  10 H                |   110.71
    4 C                |   8 C                |  11 H                |   111.04
    4 C                |   8 C                |  12 H                |   111.12
   10 H                |   8 C                |  11 H                |   107.71
   10 H                |   8 C                |  12 H                |   108.27
   11 H                |   8 C                |  12 H                |   107.86
    5 C                |  15 C                |  16 H                |   110.71
    5 C                |  15 C                |  17 H                |   111.12
    5 C                |  15 C                |  18 H                |   111.04
   16 H                |  15 C                |  17 H                |   108.26
   16 H                |  15 C                |  18 H                |   107.71
   17 H                |  15 C                |  18 H                |   107.86
 ------------------------------------------------------------------------------
                            number of included internuclear angles:         30
 ==============================================================================



                              Aldehyde and Ketone set
                              -----------------------
 
                                 NWChem DFT Module
                                 -----------------
 
 
                              Aldehyde and Ketone set
 
 
                      Basis "ao basis" -> "ao basis" (spherical)
                      -----
  C (Carbon)
  ----------
            Exponent  Coefficients 
       -------------- ---------------------------------------------------------
  1 S  8.50603840E+03  0.000534
  1 S  1.27573290E+03  0.004125
  1 S  2.90311870E+02  0.021171
  1 S  8.20562000E+01  0.082418
  1 S  2.64796410E+01  0.240129
 
  2 S  9.24145850E+00  1.000000
 
  3 S  3.36435300E+00  1.000000
 
  4 S  8.71741640E-01  1.000000
 
  5 S  3.63523520E-01  1.000000
 
  6 S  1.28731350E-01  1.000000
 
  7 P  3.47094960E+01  0.005330
  7 P  7.95908830E+00  0.035866
  7 P  2.37869720E+00  0.142003
  7 P  8.15400650E-01  0.342031
 
  8 P  2.89537850E-01  1.000000
 
  9 P  1.00847540E-01  1.000000
 
  H (Hydrogen)
  ------------
            Exponent  Coefficients 
       -------------- ---------------------------------------------------------
  1 S  3.40613410E+01  0.006025
  1 S  5.12357460E+00  0.045021
  1 S  1.16466260E+00  0.201897
 
  2 S  3.27230410E-01  1.000000
 
  3 S  1.03072410E-01  1.000000
 


 Summary of "ao basis" -> "ao basis" (spherical)
 ------------------------------------------------------------------------------
       Tag                 Description            Shells   Functions and Types
 ---------------- ------------------------------  ------  ---------------------
 C                        ahlrichs vtz               9       15   6s3p
 H                        ahlrichs vtz               3        3   3s




 Summary of "ao basis" -> "ao basis" (spherical)
 ------------------------------------------------------------------------------
       Tag                 Description            Shells   Functions and Types
 ---------------- ------------------------------  ------  ---------------------
 C                        ahlrichs vtz               9       15   6s3p
 H                        ahlrichs vtz               3        3   3s


  Caching 1-el integrals 
 
            General Information
            -------------------
          SCF calculation type: DFT
          Wavefunction type:  spin polarized.
          No. of atoms     :    18
          No. of electrons :    49
           Alpha electrons :    25
            Beta electrons :    24
          Charge           :    -1
          Spin multiplicity:     2
          Use of symmetry is: off; symmetry adaption is: off
          Maximum number of iterations: 999
          This is a Direct SCF calculation.
          AO basis - number of functions:   126
                     number of shells:    90
          Convergence on energy requested:  1.00D-08
          Convergence on density requested:  1.00D-07
          Convergence on gradient requested:  1.00D-06
 
              XC Information
              --------------
                        PBE96 Method XC Functional
          PerdewBurkeErnzerhof Exchange Functional  1.000          
            Perdew 1991 LDA Correlation Functional  1.000 local    
           PerdewBurkeErnz. Correlation Functional  1.000 non-local
 
             Grid Information
             ----------------
          Grid used for XC integration:  fine      
          Radial quadrature: Mura-Knowles        
          Angular quadrature: Lebedev. 
          Tag              B.-S. Rad. Rad. Pts. Rad. Cut. Ang. Pts.
          ---              ---------- --------- --------- ---------
          C                   0.70       70          16.0       590
          H                   0.35       60          16.0       590
          Grid pruning is: on 
          Number of quadrature shells:  1140
          Spatial weights used:  Erf1
 
          Convergence Information
          -----------------------
          Convergence aids based upon iterative change in 
          total energy or number of iterations. 
          Levelshifting, if invoked, occurs when the 
          HOMO/LUMO gap drops below (HL_TOL):  1.00D-02
          DIIS, if invoked, will attempt to extrapolate 
          using up to (NFOCK): 10 stored Fock matrices.

                    Damping( 0%)  Levelshifting(0.5)       DIIS
                  --------------- ------------------- ---------------
          dE  on:    start            ASAP                start   
          dE off:    2 iters        999 iters           999 iters 

 
      Screening Tolerance Information
      -------------------------------
          Density screening/tol_rho:  1.00D-12
          AO Gaussian exp screening on grid/accAOfunc:  18
          CD Gaussian exp screening on grid/accCDfunc:  20
          XC Gaussian exp screening on grid/accXCfunc:  20
          Schwarz screening/accCoul:  1.00D-12

      Dispersion Parameters
      ---------------------

           DFT-D3BJ Model   
          s6 scale factor  :        1.000000000000
          s8 scale factor  :        0.787500000000
          a1 parameter     :        0.428900000000
          a2 parameter     :        4.440700000000
              vdW contrib  :       -0.013114640828


 Forcing the number of linearly dependent vectors to be  0
 
      Superposition of Atomic Density Guess
      -------------------------------------
 
 Sum of atomic energies:        -232.02458117
   Time after variat. SCF:      0.2
   Time prior to 1st pass:      0.2

 Grid_pts file          = ./19_transEtCHCHEt.gridpts.00
 Record size in doubles =  12289        No. of grid_pts per rec  =   3070
 Max. records in memory =     18        Max. recs in file   =  67550051

 Grid integrated density:      47.999999764899
 Requested integration accuracy:   0.10E-06

           Memory utilization after 1st SCF pass: 
           Heap Space remaining (MW):        0.00                 242
          Stack Space remaining (MW):      288.36           288356452

   convergence    iter        energy       DeltaE   RMS-Dens  Diis-err    time
 ---------------- ----- ----------------- --------- --------- ---------  ------
 d= 0,ls=0.0,diis     1   -236.1710414096 -4.62D+02  1.43D-02  1.77D+01     0.7
                                                     1.25D-02  1.63D+01
 d= 0,ls=0.0,diis     2   -234.9303013542  1.24D+00  1.39D-01  8.87D-01     1.5
                                                     1.13D-01  8.24D-01
 Grid integrated density:      49.000008994006
 Requested integration accuracy:   0.10E-06
 d= 0,ls=0.0,diis     3   -232.7361543877  2.19D+00  1.38D-01  3.68D+00     2.3
                                                     1.12D-01  3.53D+00
 d= 0,ls=0.0,diis     4   -235.3505569438 -2.61D+00  5.94D-02  1.68D-01     3.1
                                                     4.16D-03  1.58D-01
 d= 0,ls=0.5,diis     5   -235.4105149152 -6.00D-02  1.33D-03  8.45D-02     3.9
                                                     6.35D-04  8.33D-02
 d= 0,ls=0.5,diis     6   -235.4395944335 -2.91D-02  1.09D-03  2.97D-02     4.7
                                                     6.33D-04  2.87D-02
 d= 0,ls=0.5,diis     7   -235.4514868704 -1.19D-02  1.64D-03  1.18D-02     5.5
                                                     5.61D-04  1.10D-02
 d= 0,ls=0.5,diis     8   -235.4572441639 -5.76D-03  1.81D-03  4.24D-03     6.3
                                                     3.76D-04  3.50D-03
 d= 0,ls=0.5,diis     9   -235.4597024358 -2.46D-03  1.80D-03  1.47D-03     7.0
                                                     2.24D-04  9.24D-04
 d= 0,ls=0.5,diis    10   -235.4607913258 -1.09D-03  1.66D-03  5.98D-04     7.9
                                                     1.14D-04  2.12D-04
 d= 0,ls=0.5,diis    11   -235.4613063944 -5.15D-04  1.52D-03  4.37D-04     8.6
                                                     6.83D-05  1.24D-04
 d= 0,ls=0.5,diis    12   -235.4616663736 -3.60D-04  1.36D-03  3.87D-04     9.4
                                                     7.81D-05  1.18D-04
 d= 0,ls=0.5,diis    13   -235.4619003997 -2.34D-04  1.19D-03  4.28D-04    10.2
                                                     8.56D-05  1.82D-04
 d= 0,ls=0.5,diis    14   -235.4620358124 -1.35D-04  1.11D-03  5.39D-04    11.0
                                                     3.13D-05  3.09D-04
 d= 0,ls=0.5,diis    15   -235.4622587852 -2.23D-04  9.77D-04  4.64D-04    11.8
                                                     8.54D-05  2.66D-04
 d= 0,ls=0.5,diis    16   -235.4623152562 -5.65D-05  9.08D-04  5.95D-04    12.6
                                                     3.81D-05  4.01D-04
 d= 0,ls=0.5,diis    17   -235.4624627819 -1.48D-04  8.30D-04  5.49D-04    13.4
                                                     4.32D-05  3.72D-04
 d= 0,ls=0.5,diis    18   -235.4625510646 -8.83D-05  7.58D-04  5.74D-04    14.2
                                                     3.62D-05  4.10D-04
 d= 0,ls=0.5,diis    19   -235.4626343891 -8.33D-05  7.04D-04  5.82D-04    14.9
                                                     2.30D-05  4.28D-04
 d= 0,ls=0.5,diis    20   -235.4627391383 -1.05D-04  6.51D-04  5.36D-04    15.7
                                                     1.99D-05  3.93D-04
 d= 0,ls=0.5,diis    21   -235.4628261648 -8.70D-05  6.39D-04  5.05D-04    16.5
                                                     1.27D-05  3.73D-04
 d= 0,ls=0.5,diis    22   -235.4629340986 -1.08D-04  5.98D-04  4.29D-04    17.3
                                                     9.48D-06  3.18D-04
 d= 0,ls=0.5,diis    23   -235.4630309005 -9.68D-05  5.57D-04  3.59D-04    18.1
                                                     9.63D-06  2.64D-04
 d= 0,ls=0.5,diis    24   -235.4631039582 -7.31D-05  5.21D-04  3.18D-04    18.9
                                                     1.48D-05  2.37D-04
 d= 0,ls=0.5,diis    25   -235.4631552166 -5.13D-05  4.84D-04  3.02D-04    19.7
                                                     1.56D-05  2.33D-04
 d= 0,ls=0.5,diis    26   -235.4631966508 -4.14D-05  4.59D-04  2.91D-04    20.5
                                                     5.59D-06  2.32D-04
 d= 0,ls=0.5,diis    27   -235.4632547660 -5.81D-05  4.15D-04  2.50D-04    21.3
                                                     1.80D-05  1.99D-04
 d= 0,ls=0.5,diis    28   -235.4632791559 -2.44D-05  3.85D-04  2.52D-04    22.1
                                                     1.46D-05  2.06D-04
 d= 0,ls=0.5,diis    29   -235.4633022120 -2.31D-05  3.58D-04  2.54D-04    22.9
                                                     1.14D-05  2.11D-04
 d= 0,ls=0.5,diis    30   -235.4633269279 -2.47D-05  3.35D-04  2.47D-04    23.7
                                                     7.62D-06  2.08D-04
 d= 0,ls=0.5,diis    31   -235.4633542989 -2.74D-05  3.15D-04  2.32D-04    24.5
                                                     7.68D-06  1.96D-04
 d= 0,ls=0.5,diis    32   -235.4633765690 -2.23D-05  2.93D-04  2.22D-04    25.2
                                                     7.83D-06  1.90D-04
 d= 0,ls=0.5,diis    33   -235.4633957618 -1.92D-05  2.75D-04  2.14D-04    26.0
                                                     4.25D-06  1.84D-04
 d= 0,ls=0.5,diis    34   -235.4634183545 -2.26D-05  2.61D-04  1.99D-04    26.9
                                                     3.06D-06  1.71D-04
 d= 0,ls=0.5,diis    35   -235.4634438824 -2.55D-05  2.46D-04  1.77D-04    28.2
                                                     5.20D-06  1.51D-04
 d= 0,ls=0.5,diis    36   -235.4634706850 -2.68D-05  2.34D-04  1.52D-04    28.9
                                                     4.28D-06  1.28D-04
 d= 0,ls=0.5,diis    37   -235.4634919895 -2.13D-05  2.21D-04  1.34D-04    29.7
                                                     3.24D-06  1.11D-04
 d= 0,ls=0.5,diis    38   -235.4635115053 -1.95D-05  2.08D-04  1.18D-04    30.5
                                                     4.97D-06  9.64D-05
 d= 0,ls=0.5,diis    39   -235.4635303208 -1.88D-05  1.98D-04  1.00D-04    31.3
                                                     3.10D-06  8.13D-05
 d= 0,ls=0.5,diis    40   -235.4635457902 -1.55D-05  1.92D-04  8.72D-05    32.1
                                                     4.79D-06  6.99D-05
 d= 0,ls=0.5,diis    41   -235.4635613521 -1.56D-05  1.87D-04  7.31D-05    33.0
                                                     9.13D-06  5.80D-05
 d= 0,ls=0.5,diis    42   -235.4635788477 -1.75D-05  1.81D-04  5.49D-05    33.8
                                                     9.59D-06  4.24D-05
 d= 0,ls=0.5,diis    43   -235.4635945210 -1.57D-05  1.76D-04  3.89D-05    34.6
                                                     7.10D-06  2.84D-05
 d= 0,ls=0.5,diis    44   -235.4636063796 -1.19D-05  1.69D-04  2.83D-05    35.3
                                                     5.14D-06  1.96D-05
 d= 0,ls=0.5,diis    45   -235.4636156794 -9.30D-06  1.54D-04  2.07D-05    36.1
                                                     3.21D-06  1.37D-05
 d= 0,ls=0.5,diis    46   -235.4636207549 -5.08D-06  1.42D-04  1.88D-05    36.9
                                                     2.77D-06  1.26D-05
 d= 0,ls=0.5,diis    47   -235.4636251012 -4.35D-06  1.30D-04  1.71D-05    37.7
                                                     5.69D-06  1.16D-05
 d= 0,ls=0.5,diis    48   -235.4636277146 -2.61D-06  1.21D-04  1.72D-05    38.5
                                                     4.81D-06  1.23D-05
 d= 0,ls=0.5,diis    49   -235.4636302816 -2.57D-06  1.11D-04  1.67D-05    39.3
                                                     3.97D-06  1.24D-05
 d= 0,ls=0.5,diis    50   -235.4636326916 -2.41D-06  1.05D-04  1.60D-05    40.1
                                                     2.48D-06  1.21D-05
 d= 0,ls=0.5,diis    51   -235.4636353302 -2.64D-06  9.89D-05  1.46D-05    40.8
                                                     1.58D-06  1.12D-05
 d= 0,ls=0.5,diis    52   -235.4636379716 -2.64D-06  9.27D-05  1.29D-05    41.6
                                                     2.58D-06  9.92D-06
 d= 0,ls=0.5,diis    53   -235.4636398186 -1.85D-06  8.59D-05  1.22D-05    42.4
                                                     2.68D-06  9.49D-06
 d= 0,ls=0.5,diis    54   -235.4636413511 -1.53D-06  8.11D-05  1.17D-05    43.2
                                                     3.25D-06  9.18D-06
 d= 0,ls=0.5,diis    55   -235.4636424904 -1.14D-06  7.71D-05  1.15D-05    44.0
                                                     1.88D-06  9.22D-06
 d= 0,ls=0.5,diis    56   -235.4636439807 -1.49D-06  7.21D-05  1.06D-05    44.8
                                                     1.41D-06  8.57D-06
 d= 0,ls=0.5,diis    57   -235.4636453135 -1.33D-06  6.72D-05  9.80D-06    45.6
                                                     1.50D-06  7.96D-06
 d= 0,ls=0.5,diis    58   -235.4636463807 -1.07D-06  6.24D-05  9.31D-06    46.4
                                                     2.78D-06  7.65D-06
 d= 0,ls=0.5,diis    59   -235.4636469153 -5.35D-07  5.81D-05  9.44D-06    47.2
                                                     1.99D-06  7.95D-06
 d= 0,ls=0.5,diis    60   -235.4636475702 -6.55D-07  5.48D-05  9.24D-06    48.0
                                                     1.77D-06  7.89D-06
 d= 0,ls=0.5,diis    61   -235.4636481525 -5.82D-07  5.14D-05  9.08D-06    48.8
                                                     1.24D-06  7.86D-06
 d= 0,ls=0.5,diis    62   -235.4636488857 -7.33D-07  4.79D-05  8.62D-06    49.6
                                                     1.62D-06  7.51D-06
 d= 0,ls=0.5,diis    63   -235.4636492913 -4.06D-07  4.47D-05  8.59D-06    50.3
                                                     7.99D-07  7.55D-06
 d= 0,ls=0.5,diis    64   -235.4636499039 -6.13D-07  4.20D-05  8.15D-06    51.1
                                                     2.43D-06  7.19D-06
 d= 0,ls=0.5,diis    65   -235.4636499377 -3.38D-08  3.90D-05  8.58D-06    51.9
                                                     1.29D-06  7.65D-06
 d= 0,ls=0.5,diis    66   -235.4636503133 -3.76D-07  4.04D-05  8.41D-06    52.7
                                                     1.95D-06  7.52D-06
 d= 0,ls=0.5,diis    67   -235.4636509084 -5.95D-07  3.71D-05  7.83D-06    53.5
                                                     1.10D-06  6.97D-06
 d= 0,ls=0.5,diis    68   -235.4636513989 -4.91D-07  3.48D-05  7.39D-06    54.3
                                                     1.40D-06  6.58D-06
 d= 0,ls=0.5,diis    69   -235.4636518118 -4.13D-07  3.21D-05  7.06D-06    55.1
                                                     7.41D-07  6.33D-06
 d= 0,ls=0.5,diis    70   -235.4636521426 -3.31D-07  3.01D-05  6.82D-06    55.8
                                                     1.43D-06  6.15D-06
 d= 0,ls=0.5,diis    71   -235.4636528562 -7.14D-07  3.00D-05  5.94D-06    56.6
                                                     2.90D-06  5.35D-06
 d= 0,ls=0.5,diis    72   -235.4636538143 -9.58D-07  3.07D-05  4.76D-06    57.4
                                                     4.74D-06  4.28D-06
 d= 0,ls=0.5,diis    73   -235.4636550494 -1.24D-06  3.70D-05  3.15D-06    58.2
                                                     6.91D-06  2.74D-06
 d= 0,ls=0.5,diis    74   -235.4636563815 -1.33D-06  3.65D-05  1.46D-06    59.0
                                                     4.28D-06  1.13D-06
 d= 0,ls=0.5,diis    75   -235.4636570506 -6.69D-07  3.49D-05  7.81D-07    59.8
                                                     2.95D-06  5.28D-07
 d= 0,ls=0.5,diis    76   -235.4636574616 -4.11D-07  3.20D-05  4.30D-07    60.6
                                                     1.56D-06  2.35D-07
 d= 0,ls=0.5,diis    77   -235.4636577040 -2.42D-07  2.90D-05  2.87D-07    61.4
                                                     9.44D-07  1.33D-07
 d= 0,ls=0.5,diis    78   -235.4636578661 -1.62D-07  2.63D-05  2.24D-07    62.2
                                                     6.94D-07  9.80D-08
 d= 0,ls=0.5,diis    79   -235.4636579943 -1.28D-07  2.33D-05  1.86D-07    62.9
                                                     1.40D-06  7.92D-08
 d= 0,ls=0.5,diis    80   -235.4636580629 -6.86D-08  2.11D-05  2.08D-07    63.7
                                                     1.06D-06  1.10D-07
 d= 0,ls=0.5,diis    81   -235.4636581333 -7.04D-08  1.93D-05  2.03D-07    64.5
                                                     1.07D-06  1.15D-07
 d= 0,ls=0.5,diis    82   -235.4636581851 -5.18D-08  1.77D-05  2.10D-07    65.3
                                                     7.38D-07  1.30D-07
 d= 0,ls=0.5,diis    83   -235.4636582411 -5.60D-08  1.66D-05  1.97D-07    66.1
                                                     6.21D-07  1.24D-07
 d= 0,ls=0.5,diis    84   -235.4636582927 -5.16D-08  1.51D-05  1.81D-07    66.9
                                                     7.65D-07  1.16D-07
 d= 0,ls=0.5,diis    85   -235.4636583266 -3.39D-08  1.42D-05  1.83D-07    67.7
                                                     7.01D-07  1.25D-07
 d= 0,ls=0.5,diis    86   -235.4636583594 -3.28D-08  1.39D-05  1.79D-07    68.5
                                                     7.52D-07  1.27D-07
 d= 0,ls=0.5,diis    87   -235.4636583926 -3.32D-08  1.30D-05  1.68D-07    69.3
                                                     3.44D-07  1.24D-07
 d= 0,ls=0.5,diis    88   -235.4636584325 -3.99D-08  1.19D-05  1.43D-07    70.0
                                                     4.09D-07  1.05D-07
 d= 0,ls=0.5,diis    89   -235.4636584591 -2.66D-08  1.10D-05  1.34D-07    70.8
                                                     3.77D-07  1.01D-07
 d= 0,ls=0.5,diis    90   -235.4636584807 -2.16D-08  1.03D-05  1.28D-07    71.6
                                                     8.36D-07  9.94D-08
 d= 0,ls=0.5,diis    91   -235.4636584823 -1.58D-09  9.38D-06  1.48D-07    72.4
                                                     6.44D-07  1.25D-07
 d= 0,ls=0.5,diis    92   -235.4636584894 -7.04D-09  8.79D-06  1.56D-07    73.2
                                                     3.18D-07  1.37D-07
 d= 0,ls=0.5,diis    93   -235.4636585060 -1.66D-08  8.33D-06  1.47D-07    74.0
                                                     2.29D-07  1.30D-07
 d= 0,ls=0.5,diis    94   -235.4636585302 -2.43D-08  7.88D-06  1.26D-07    74.8
                                                     2.02D-07  1.11D-07
 d= 0,ls=0.5,diis    95   -235.4636585534 -2.32D-08  7.61D-06  1.05D-07    75.5
                                                     2.89D-07  9.13D-08
 d= 0,ls=0.5,diis    96   -235.4636585773 -2.39D-08  6.97D-06  8.22D-08    76.3
                                                     2.18D-07  7.00D-08
 d= 0,ls=0.5,diis    97   -235.4636585870 -9.74D-09  6.37D-06  8.10D-08    77.1
                                                     2.01D-07  6.92D-08
 d= 0,ls=0.5,diis    98   -235.4636586016 -1.46D-08  6.07D-06  6.92D-08    77.9
                                                     2.21D-07  5.81D-08
 d= 0,ls=0.5,diis    99   -235.4636586165 -1.50D-08  5.81D-06  5.59D-08    78.7
                                                     1.75D-07  4.55D-08
 d= 0,ls=0.5,diis   100   -235.4636586290 -1.24D-08  5.55D-06  4.55D-08    79.5
                                                     2.31D-07  3.62D-08
 d= 0,ls=0.5,diis   101   -235.4636586406 -1.16D-08  5.51D-06  3.56D-08    80.3
                                                     4.28D-07  2.72D-08
 d= 0,ls=0.5,diis   102   -235.4636586543 -1.37D-08  5.45D-06  2.19D-08    81.1
                                                     3.23D-07  1.48D-08
 d= 0,ls=0.5,diis   103   -235.4636586642 -9.91D-09  5.21D-06  1.32D-08    81.9
                                                     2.37D-07  7.64D-09
 d= 0,ls=0.5,diis   104   -235.4636586715 -7.23D-09  4.98D-06  7.94D-09    82.7
                                                     1.42D-07  3.69D-09
 d= 0,ls=0.5,diis   105   -235.4636586767 -5.19D-09  4.54D-06  5.06D-09    83.4
                                                     8.83D-08  1.86D-09
 d= 0,ls=0.5,diis   106   -235.4636586802 -3.55D-09  4.05D-06  3.98D-09    84.2
                                                     2.59D-07  1.38D-09
 d= 0,ls=0.5,diis   107   -235.4636586821 -1.90D-09  3.64D-06  4.77D-09    85.0
                                                     2.46D-07  2.32D-09
 d= 0,ls=0.5,diis   108   -235.4636586835 -1.38D-09  3.27D-06  5.65D-09    85.8
                                                     2.91D-07  3.30D-09
 d= 0,ls=0.5,diis   109   -235.4636586840 -5.33D-10  3.00D-06  7.27D-09    86.6
                                                     1.78D-07  4.94D-09
 d= 0,ls=0.5,diis   110   -235.4636586851 -1.10D-09  2.82D-06  7.58D-09    87.4
                                                     1.06D-07  5.39D-09
 d= 0,ls=0.5,diis   111   -235.4636586866 -1.50D-09  2.69D-06  7.03D-09    88.2
                                                     7.91D-08  5.06D-09
 d= 0,ls=0.5,diis   112   -235.4636586881 -1.51D-09  2.51D-06  6.26D-09    88.9
                                                     8.09D-08  4.55D-09
 d= 0,ls=0.5,diis   113   -235.4636586893 -1.13D-09  2.36D-06  5.89D-09    89.7
                                                     6.22D-08  4.38D-09
 d= 0,ls=0.5,diis   114   -235.4636586904 -1.19D-09  2.41D-06  5.26D-09    90.5
                                                     5.49D-08  3.96D-09
 d= 0,ls=0.5,diis   115   -235.4636586921 -1.63D-09  2.21D-06  3.94D-09    91.3
                                                     3.42D-08  2.89D-09
 d= 0,ls=0.5,diis   116   -235.4636586932 -1.10D-09  2.02D-06  3.30D-09    92.1
                                                     7.81D-08  2.42D-09
 d= 0,ls=0.5,diis   117   -235.4636586937 -5.59D-10  1.86D-06  3.32D-09    92.9
                                                     7.60D-08  2.54D-09
 d= 0,ls=0.5,diis   118   -235.4636586942 -4.39D-10  1.73D-06  3.39D-09    93.7
                                                     7.84D-08  2.70D-09
 d= 0,ls=0.5,diis   119   -235.4636586945 -3.32D-10  1.61D-06  3.52D-09    94.5
                                                     4.21D-08  2.89D-09
 d= 0,ls=0.5,diis   120   -235.4636586950 -4.97D-10  1.51D-06  3.32D-09    95.3
                                                     2.77D-08  2.75D-09
 d= 0,ls=0.5,diis   121   -235.4636586955 -5.23D-10  1.42D-06  3.04D-09    96.1
                                                     2.62D-08  2.51D-09
 d= 0,ls=0.5,diis   122   -235.4636586959 -4.20D-10  1.33D-06  2.85D-09    96.9
                                                     1.61D-08  2.35D-09
 d= 0,ls=0.5,diis   123   -235.4636586964 -4.32D-10  1.24D-06  2.59D-09    97.6
                                                     1.19D-08  2.13D-09
 d= 0,ls=0.5,diis   124   -235.4636586968 -4.25D-10  1.20D-06  2.30D-09    98.4
                                                     2.98D-08  1.86D-09
 d= 0,ls=0.5,diis   125   -235.4636586973 -4.94D-10  1.13D-06  1.89D-09    99.2
                                                     1.78D-08  1.48D-09
 d= 0,ls=0.5,diis   126   -235.4636586977 -3.75D-10  1.08D-06  1.61D-09   100.0
                                                     3.26D-08  1.24D-09
 d= 0,ls=0.5,diis   127   -235.4636586981 -4.08D-10  1.02D-06  1.25D-09   100.8
                                                     1.40D-08  9.22D-10
 d= 0,ls=0.5,diis   128   -235.4636586984 -2.86D-10  9.18D-07  1.05D-09   101.6
                                                     1.97D-08  7.67D-10
 d= 0,ls=0.5,diis   129   -235.4636586985 -1.65D-10  8.68D-07  1.00D-09   102.4
                                                     1.55D-08  7.53D-10
 d= 0,ls=0.5,diis   130   -235.4636586987 -2.18D-10  8.06D-07  8.48D-10   103.2
                                                     1.37D-08  6.28D-10
 d= 0,ls=0.5,diis   131   -235.4636586989 -1.41D-10  7.52D-07  7.86D-10   103.9
                                                     1.92D-08  5.89D-10
 d= 0,ls=0.5,diis   132   -235.4636586990 -1.10D-10  7.01D-07  7.53D-10   104.7
                                                     1.34D-08  5.74D-10
 d= 0,ls=0.5,diis   133   -235.4636586991 -1.12D-10  6.53D-07  6.98D-10   105.5
                                                     1.92D-08  5.37D-10
 d= 0,ls=0.5,diis   134   -235.4636586992 -8.14D-11  6.13D-07  6.75D-10   106.3
                                                     1.73D-08  5.28D-10
 d= 0,ls=0.5,diis   135   -235.4636586993 -7.44D-11  5.61D-07  6.52D-10   107.1
                                                     2.85D-08  5.16D-10
 d= 0,ls=0.5,diis   136   -235.4636586993 -3.69D-11  5.26D-07  6.69D-10   107.9
                                                     2.65D-08  5.45D-10
 d= 0,ls=0.5,diis   137   -235.4636586993 -3.43D-11  4.88D-07  6.83D-10   108.7
                                                     4.20D-08  5.68D-10
 d= 0,ls=0.5,diis   138   -235.4636586993  1.88D-11  4.38D-07  7.67D-10   109.4
                                                     2.03D-08  6.61D-10
 d= 0,ls=0.5,diis   139   -235.4636586993 -3.10D-11  4.23D-07  7.63D-10   110.2
                                                     3.27D-08  6.66D-10
 d= 0,ls=0.5,diis   140   -235.4636586993  3.24D-12  3.88D-07  8.05D-10   111.0
                                                     1.89D-08  7.15D-10
 d= 0,ls=0.5,diis   141   -235.4636586994 -2.46D-11  3.69D-07  8.03D-10   111.8
                                                     2.31D-08  7.19D-10
 d= 0,ls=0.5,diis   142   -235.4636586994 -5.23D-12  3.43D-07  8.24D-10   112.6
                                                     1.92D-08  7.49D-10
 d= 0,ls=0.5,diis   143   -235.4636586994 -7.24D-11  5.62D-07  7.31D-10   113.4
                                                     1.54D-07  6.61D-10
 d= 0,ls=0.5,diis   144   -235.4636586998 -3.94D-10  6.19D-07  1.95D-10   114.2
                                                     1.32D-07  1.56D-10
 d= 0,ls=0.5,diis   145   -235.4636587000 -1.44D-10  4.58D-07  3.71D-11   115.0
                                                     4.39D-08  1.65D-11
 d= 0,ls=0.5,diis   146   -235.4636587000 -4.06D-11  3.67D-07  1.75D-11   115.7
                                                     4.22D-08  1.52D-12
 d= 0,ls=0.5,diis   147   -235.4636587000 -1.45D-11  3.44D-07  2.86D-11   116.5
                                                     1.50D-08  1.14D-11
 d= 0,ls=0.5,diis   148   -235.4636587000 -1.62D-11  3.00D-07  3.07D-11   117.3
                                                     1.85D-08  1.52D-11
 d= 0,ls=0.5,diis   149   -235.4636587001 -1.06D-11  2.84D-07  3.60D-11   118.1
                                                     1.38D-08  2.11D-11
 d= 0,ls=0.5,diis   150   -235.4636587001 -1.23D-11  2.51D-07  3.49D-11   118.9
                                                     1.67D-08  2.13D-11
 d= 0,ls=0.5,diis   151   -235.4636587001 -6.82D-12  2.41D-07  3.95D-11   119.7
                                                     7.60D-09  2.64D-11
 d= 0,ls=0.5,diis   152   -235.4636587001 -1.24D-11  2.22D-07  3.30D-11   120.5
                                                     8.85D-09  2.15D-11
 d= 0,ls=0.5,diis   153   -235.4636587001 -8.53D-12  2.40D-07  3.08D-11   121.3
                                                     1.81D-08  2.03D-11
 d= 0,ls=0.5,diis   154   -235.4636587001 -1.83D-11  2.14D-07  1.36D-11   122.0
                                                     8.27D-09  6.50D-12
 d= 0,ls=0.5,diis   155   -235.4636587001 -6.37D-12  1.84D-07  1.33D-11   122.8
                                                     1.90D-08  7.06D-12
 d= 0,ls=0.5,diis   156   -235.4636587001 -5.68D-13  1.68D-07  2.04D-11   123.6
                                                     1.33D-08  1.38D-11
 d= 0,ls=0.5,diis   157   -235.4636587001 -1.08D-12  1.54D-07  2.49D-11   124.4
                                                     9.62D-09  1.85D-11
 d= 0,ls=0.5,diis   158   -235.4636587001 -2.16D-12  1.43D-07  2.68D-11   125.2
                                                     6.09D-09  2.07D-11
  Singularity in Pulay matrix. Error and Fock matrices removed. 
  Singularity in Pulay matrix. Error and Fock matrices removed. 
  Singularity in Pulay matrix. Error and Fock matrices removed. 
  Singularity in Pulay matrix. Error and Fock matrices removed. 
 d= 0,ls=0.5,diis   159   -235.4636587001 -2.96D-12  1.49D-07  2.63D-11   126.0
                                                     1.27D-08  2.07D-11
 d= 0,ls=0.5,diis   160   -235.4636587001 -1.10D-11  1.39D-07  1.41D-11   126.8
                                                     2.76D-09  9.83D-12
  Singularity in Pulay matrix. Error and Fock matrices removed. 
  Singularity in Pulay matrix. Error and Fock matrices removed. 
  Singularity in Pulay matrix. Error and Fock matrices removed. 
 d= 0,ls=0.5,diis   161   -235.4636587001 -4.72D-12  1.31D-07  1.12D-11   127.6
                                                     1.78D-09  7.59D-12
  Singularity in Pulay matrix. Error and Fock matrices removed. 
 d= 0,ls=0.5,diis   162   -235.4636587001 -3.13D-12  1.18D-07  9.33D-12   128.4
                                                     4.98D-09  6.29D-12
 d= 0,ls=0.5,diis   163   -235.4636587001 -1.93D-12  1.09D-07  9.73D-12   129.2
                                                     5.08D-09  6.98D-12
 d= 0,ls=0.5,diis   164   -235.4636587001 -1.14D-12  1.01D-07  1.04D-11   130.0
                                                     4.03D-09  7.93D-12
  Singularity in Pulay matrix. Error and Fock matrices removed. 
 d= 0,ls=0.5,diis   165   -235.4636587001 -1.31D-12  9.41D-08  1.06D-11   130.8
                                                     1.91D-09  8.26D-12


         Total DFT energy =     -235.463658700150
      One electron energy =     -769.867857821430
           Coulomb energy =      345.769437538597
          Exchange energy =      -35.252734639122
       Correlation energy =       -1.561224074307
 Nuclear repulsion energy =      225.461834936940

    Dispersion correction =       -0.013114640828

 Numeric. integr. density =       49.000001173273

     Total iterative time =    131.3s


 
                    DFT Final Alpha Molecular Orbital Analysis
                    ------------------------------------------
 
 Vector    1  Occ=1.000000D+00  E=-9.725532D+00
              MO Center=  9.0D-01,  4.5D-01, -9.1D-01, r^2= 2.1D+00
   Bfn.  Coefficient  Atom+Function         Bfn.  Coefficient  Atom+Function  
  ----- ------------  ---------------      ----- ------------  ---------------
    50      0.389989   5 C  s                51      0.330225   5 C  s         
    49      0.283839   5 C  s                35     -0.167235   4 C  s         
    36     -0.141602   4 C  s                34     -0.121714   4 C  s         
    52      0.053159   5 C  s         
 
 Vector    2  Occ=1.000000D+00  E=-9.725531D+00
              MO Center= -9.0D-01, -4.5D-01,  9.1D-01, r^2= 2.1D+00
   Bfn.  Coefficient  Atom+Function         Bfn.  Coefficient  Atom+Function  
  ----- ------------  ---------------      ----- ------------  ---------------
    35      0.389988   4 C  s                36      0.330229   4 C  s         
    34      0.283839   4 C  s                50      0.167232   5 C  s         
    51      0.141612   5 C  s                49      0.121715   5 C  s         
    37      0.053153   4 C  s         
 
 Vector    3  Occ=1.000000D+00  E=-9.720233D+00
              MO Center=  1.6D+00,  2.1D-01, -6.5D-01, r^2= 6.2D+00
   Bfn.  Coefficient  Atom+Function         Bfn.  Coefficient  Atom+Function  
  ----- ------------  ---------------      ----- ------------  ---------------
   104      0.377250  15 C  s               105      0.319605  15 C  s         
   103      0.274602  15 C  s                71      0.194061   8 C  s         
    72      0.164400   8 C  s                70      0.141256   8 C  s         
   106      0.051206  15 C  s                73      0.026364   8 C  s         
 
 Vector    4  Occ=1.000000D+00  E=-9.720233D+00
              MO Center= -1.6D+00, -2.1D-01,  6.5D-01, r^2= 6.2D+00
   Bfn.  Coefficient  Atom+Function         Bfn.  Coefficient  Atom+Function  
  ----- ------------  ---------------      ----- ------------  ---------------
    71      0.377248   8 C  s                72      0.319613   8 C  s         
    70      0.274602   8 C  s               104     -0.194055  15 C  s         
   105     -0.164416  15 C  s               103     -0.141256  15 C  s         
    73      0.051173   8 C  s               106     -0.026299  15 C  s         
 
 Vector    5  Occ=1.000000D+00  E=-9.683936D+00
              MO Center=  3.2D-05, -1.5D-05, -4.1D-05, r^2= 4.8D-01
   Bfn.  Coefficient  Atom+Function         Bfn.  Coefficient  Atom+Function  
  ----- ------------  ---------------      ----- ------------  ---------------
     2      0.299798   1 C  s                17      0.299822   2 C  s         
     3      0.254325   1 C  s                18      0.254345   2 C  s         
     1      0.218313   1 C  s                16      0.218330   2 C  s         
     4      0.040729   1 C  s                19      0.040732   2 C  s         
 
 Vector    6  Occ=1.000000D+00  E=-9.683306D+00
              MO Center= -3.6D-05,  2.0D-05,  3.3D-05, r^2= 4.8D-01
   Bfn.  Coefficient  Atom+Function         Bfn.  Coefficient  Atom+Function  
  ----- ------------  ---------------      ----- ------------  ---------------
     2      0.300054   1 C  s                17     -0.300030   2 C  s         
     3      0.253915   1 C  s                18     -0.253895   2 C  s         
     1      0.218345   1 C  s                16     -0.218328   2 C  s         
     4      0.041990   1 C  s                19     -0.041987   2 C  s         
 
 Vector    7  Occ=1.000000D+00  E=-5.574974D-01
              MO Center=  1.2D-05,  3.8D-06, -8.8D-06, r^2= 4.3D+00
   Bfn.  Coefficient  Atom+Function         Bfn.  Coefficient  Atom+Function  
  ----- ------------  ---------------      ----- ------------  ---------------
    38      0.233962   4 C  s                53      0.233964   5 C  s         
     5      0.231271   1 C  s                20      0.231271   2 C  s         
    74      0.161319   8 C  s               107      0.161321  15 C  s         
    39      0.098697   4 C  s                54      0.098697   5 C  s         
     3     -0.072000   1 C  s                18     -0.072000   2 C  s         
 
 Vector    8  Occ=1.000000D+00  E=-5.334436D-01
              MO Center= -9.5D-06, -3.1D-06,  8.2D-06, r^2= 6.9D+00
   Bfn.  Coefficient  Atom+Function         Bfn.  Coefficient  Atom+Function  
  ----- ------------  ---------------      ----- ------------  ---------------
    38      0.263880   4 C  s                53     -0.263878   5 C  s         
    74      0.240950   8 C  s               107     -0.240949  15 C  s         
     5      0.084289   1 C  s                20     -0.084286   2 C  s         
    75      0.074696   8 C  s               108     -0.074696  15 C  s         
    36     -0.073426   4 C  s                51      0.073425   5 C  s         
 
 Vector    9  Occ=1.000000D+00  E=-4.741255D-01
              MO Center= -2.5D-06, -1.2D-06,  1.2D-06, r^2= 6.5D+00
   Bfn.  Coefficient  Atom+Function         Bfn.  Coefficient  Atom+Function  
  ----- ------------  ---------------      ----- ------------  ---------------
    74     -0.268026   8 C  s               107     -0.268026  15 C  s         
     5      0.245263   1 C  s                20      0.245264   2 C  s         
    75     -0.090550   8 C  s               108     -0.090550  15 C  s         
     3     -0.074045   1 C  s                18     -0.074045   2 C  s         
    72      0.073284   8 C  s               105      0.073284  15 C  s         
 
 Vector   10  Occ=1.000000D+00  E=-4.127948D-01
              MO Center=  6.1D-06,  7.7D-07, -2.2D-06, r^2= 8.1D+00
   Bfn.  Coefficient  Atom+Function         Bfn.  Coefficient  Atom+Function  
  ----- ------------  ---------------      ----- ------------  ---------------
    74      0.257501   8 C  s               107     -0.257502  15 C  s         
    38     -0.208802   4 C  s                53      0.208803   5 C  s         
     5     -0.131110   1 C  s                20      0.131109   2 C  s         
    75      0.091838   8 C  s               108     -0.091838  15 C  s         
    40     -0.070783   4 C  px               55     -0.070783   5 C  px        
 
 Vector   11  Occ=1.000000D+00  E=-3.679747D-01
              MO Center= -2.7D-06, -2.4D-07,  1.4D-06, r^2= 6.8D+00
   Bfn.  Coefficient  Atom+Function         Bfn.  Coefficient  Atom+Function  
  ----- ------------  ---------------      ----- ------------  ---------------
    38      0.267251   4 C  s                53      0.267250   5 C  s         
    74     -0.163816   8 C  s               107     -0.163815  15 C  s         
     5     -0.146058   1 C  s                20     -0.146060   2 C  s         
    39      0.078883   4 C  s                54      0.078883   5 C  s         
    76      0.075309   8 C  px              109     -0.075309  15 C  px        
 
 Vector   12  Occ=1.000000D+00  E=-3.148598D-01
              MO Center=  2.2D-07,  2.7D-06, -1.7D-06, r^2= 3.5D+00
   Bfn.  Coefficient  Atom+Function         Bfn.  Coefficient  Atom+Function  
  ----- ------------  ---------------      ----- ------------  ---------------
     5      0.236443   1 C  s                20     -0.236442   2 C  s         
     8      0.114531   1 C  py               23      0.114531   2 C  py        
    32      0.113160   3 H  s                65     -0.113159   6 H  s         
    41      0.107921   4 C  py               56      0.107922   5 C  py        
    31      0.101113   3 H  s                64     -0.101113   6 H  s         
 
 Vector   13  Occ=1.000000D+00  E=-2.468838D-01
              MO Center= -1.6D-05, -2.8D-06,  1.7D-05, r^2= 6.7D+00
   Bfn.  Coefficient  Atom+Function         Bfn.  Coefficient  Atom+Function  
  ----- ------------  ---------------      ----- ------------  ---------------
    41      0.152278   4 C  py               56     -0.152279   5 C  py        
    77      0.126808   8 C  py              110     -0.126810  15 C  py        
    44      0.122865   4 C  py               59     -0.122866   5 C  py        
    80      0.105252   8 C  py              113     -0.105254  15 C  py        
     9      0.088911   1 C  pz               24     -0.088912   2 C  pz        
 
 Vector   14  Occ=1.000000D+00  E=-2.455326D-01
              MO Center=  1.4D-05,  4.6D-06, -1.2D-05, r^2= 7.0D+00
   Bfn.  Coefficient  Atom+Function         Bfn.  Coefficient  Atom+Function  
  ----- ------------  ---------------      ----- ------------  ---------------
    42      0.167723   4 C  pz               57      0.167725   5 C  pz        
    78      0.142085   8 C  pz              111      0.142085  15 C  pz        
    45      0.137314   4 C  pz               60      0.137316   5 C  pz        
    81      0.116361   8 C  pz              114      0.116361  15 C  pz        
    86      0.091273   9 H  s               101     -0.091275  14 H  s         
 
 Vector   15  Occ=1.000000D+00  E=-2.198371D-01
              MO Center=  3.4D-05,  6.7D-06, -2.0D-05, r^2= 9.4D+00
   Bfn.  Coefficient  Atom+Function         Bfn.  Coefficient  Atom+Function  
  ----- ------------  ---------------      ----- ------------  ---------------
    78      0.168996   8 C  pz              111     -0.168997  15 C  pz        
    81      0.140185   8 C  pz              114     -0.140186  15 C  pz        
    42      0.120780   4 C  pz               57     -0.120783   5 C  pz        
    95      0.111588  12 H  s               122      0.111590  17 H  s         
    45      0.101464   4 C  pz               60     -0.101466   5 C  pz        
 
 Vector   16  Occ=1.000000D+00  E=-2.111397D-01
              MO Center= -1.6D-05, -1.1D-05,  1.1D-05, r^2= 8.1D+00
   Bfn.  Coefficient  Atom+Function         Bfn.  Coefficient  Atom+Function  
  ----- ------------  ---------------      ----- ------------  ---------------
    77      0.181459   8 C  py              110      0.181458  15 C  py        
    80      0.148961   8 C  py              113      0.148960  15 C  py        
     8     -0.122756   1 C  py               23     -0.122758   2 C  py        
    92      0.118286  11 H  s               125     -0.118285  18 H  s         
    91      0.096632  11 H  s               124     -0.096632  18 H  s         
 
 Vector   17  Occ=1.000000D+00  E=-1.863468D-01
              MO Center= -7.9D-06, -2.7D-06,  3.8D-06, r^2= 8.0D+00
   Bfn.  Coefficient  Atom+Function         Bfn.  Coefficient  Atom+Function  
  ----- ------------  ---------------      ----- ------------  ---------------
    76     -0.200757   8 C  px              109     -0.200757  15 C  px        
    40      0.186011   4 C  px               55      0.186012   5 C  px        
    79     -0.159970   8 C  px              112     -0.159971  15 C  px        
    43      0.148146   4 C  px               58      0.148147   5 C  px        
     5      0.098404   1 C  s                20     -0.098404   2 C  s         
 
 Vector   18  Occ=1.000000D+00  E=-1.708235D-01
              MO Center=  6.7D-06,  3.7D-06, -4.0D-07, r^2= 8.2D+00
   Bfn.  Coefficient  Atom+Function         Bfn.  Coefficient  Atom+Function  
  ----- ------------  ---------------      ----- ------------  ---------------
    77      0.166746   8 C  py              110     -0.166748  15 C  py        
    80      0.136224   8 C  py              113     -0.136226  15 C  py        
    92      0.124320  11 H  s               125      0.124322  18 H  s         
    40      0.118903   4 C  px               55     -0.118899   5 C  px        
    43      0.103113   4 C  px               58     -0.103110   5 C  px        
 
 Vector   19  Occ=1.000000D+00  E=-1.620301D-01
              MO Center= -1.5D-04, -3.2D-05,  7.5D-05, r^2= 7.6D+00
   Bfn.  Coefficient  Atom+Function         Bfn.  Coefficient  Atom+Function  
  ----- ------------  ---------------      ----- ------------  ---------------
    76     -0.144799   8 C  px              109      0.144796  15 C  px        
    40      0.139920   4 C  px               55     -0.139916   5 C  px        
    79     -0.119239   8 C  px              112      0.119236  15 C  px        
    43      0.111215   4 C  px               58     -0.111211   5 C  px        
     9      0.109967   1 C  pz               24     -0.109968   2 C  pz        
 
 Vector   20  Occ=1.000000D+00  E=-1.583851D-01
              MO Center=  1.5D-04,  2.9D-05, -6.9D-05, r^2= 9.0D+00
   Bfn.  Coefficient  Atom+Function         Bfn.  Coefficient  Atom+Function  
  ----- ------------  ---------------      ----- ------------  ---------------
    78      0.172765   8 C  pz              111      0.172780  15 C  pz        
    81      0.141439   8 C  pz              114      0.141452  15 C  pz        
    89     -0.127645  10 H  s               119      0.127660  16 H  s         
    42     -0.126157   4 C  pz               57     -0.126166   5 C  pz        
    95      0.107205  12 H  s               122     -0.107200  17 H  s         
 
 Vector   21  Occ=1.000000D+00  E=-1.364191D-01
              MO Center=  6.8D-05,  2.0D-05, -5.8D-05, r^2= 7.1D+00
   Bfn.  Coefficient  Atom+Function         Bfn.  Coefficient  Atom+Function  
  ----- ------------  ---------------      ----- ------------  ---------------
    41      0.174703   4 C  py               56      0.174710   5 C  py        
    68     -0.153418   7 H  s                98      0.153427  13 H  s         
    44      0.142153   4 C  py               59      0.142159   5 C  py        
    77     -0.116646   8 C  py               92     -0.116275  11 H  s         
   110     -0.116646  15 C  py              125      0.116277  18 H  s         
 
 Vector   22  Occ=1.000000D+00  E=-1.273658D-01
              MO Center= -6.8D-05, -2.3D-05,  5.5D-05, r^2= 5.6D+00
   Bfn.  Coefficient  Atom+Function         Bfn.  Coefficient  Atom+Function  
  ----- ------------  ---------------      ----- ------------  ---------------
    68     -0.118798   7 H  s                98     -0.118785  13 H  s         
     9     -0.116946   1 C  pz               24      0.116948   2 C  pz        
    42      0.115529   4 C  pz               57     -0.115527   5 C  pz        
     7      0.114284   1 C  px               22     -0.114289   2 C  px        
    32     -0.109738   3 H  s                65     -0.109732   6 H  s         
 
 Vector   23  Occ=1.000000D+00  E=-1.098103D-01
              MO Center= -9.8D-06,  1.3D-06,  7.9D-06, r^2= 4.8D+00
   Bfn.  Coefficient  Atom+Function         Bfn.  Coefficient  Atom+Function  
  ----- ------------  ---------------      ----- ------------  ---------------
    33      0.167708   3 H  s                66      0.167707   6 H  s         
     8      0.160309   1 C  py               23     -0.160306   2 C  py        
    32      0.136605   3 H  s                65      0.136603   6 H  s         
    11      0.134004   1 C  py               26     -0.134002   2 C  py        
    42      0.123515   4 C  pz               57     -0.123516   5 C  pz        
 
 Vector   24  Occ=1.000000D+00  E=-3.172710D-02
              MO Center= -2.7D-06,  2.2D-06, -5.3D-06, r^2= 2.8D+00
   Bfn.  Coefficient  Atom+Function         Bfn.  Coefficient  Atom+Function  
  ----- ------------  ---------------      ----- ------------  ---------------
     7      0.201006   1 C  px               22      0.201004   2 C  px        
     9      0.187817   1 C  pz               24      0.187819   2 C  pz        
    10      0.186145   1 C  px               25      0.186144   2 C  px        
    12      0.171095   1 C  pz               27      0.171096   2 C  pz        
    75      0.168153   8 C  s               108     -0.168153  15 C  s         
 
 Vector   25  Occ=1.000000D+00  E= 1.495140D-01
              MO Center= -1.6D-06, -2.4D-06,  2.0D-06, r^2= 1.0D+01
   Bfn.  Coefficient  Atom+Function         Bfn.  Coefficient  Atom+Function  
  ----- ------------  ---------------      ----- ------------  ---------------
    75      1.064260   8 C  s               108      1.064263  15 C  s         
    96     -0.767103  12 H  s               123     -0.767105  17 H  s         
    39      0.407577   4 C  s                54      0.407571   5 C  s         
    87     -0.365919   9 H  s               102     -0.365913  14 H  s         
    13      0.320499   1 C  px               28     -0.320494   2 C  px        
 
 Vector   26  Occ=0.000000D+00  E= 1.679116D-01
              MO Center=  3.7D-05,  5.9D-06, -1.5D-05, r^2= 1.7D+01
   Bfn.  Coefficient  Atom+Function         Bfn.  Coefficient  Atom+Function  
  ----- ------------  ---------------      ----- ------------  ---------------
    75      1.725407   8 C  s               108     -1.725426  15 C  s         
    96     -0.920512  12 H  s               123      0.920521  17 H  s         
    93     -0.687438  11 H  s               126      0.687442  18 H  s         
    69     -0.602306   7 H  s                99      0.602318  13 H  s         
    87     -0.484332   9 H  s               102      0.484337  14 H  s         
 
 Vector   27  Occ=0.000000D+00  E= 1.780145D-01
              MO Center= -3.1D-05,  1.2D-05,  2.1D-05, r^2= 8.7D+00
   Bfn.  Coefficient  Atom+Function         Bfn.  Coefficient  Atom+Function  
  ----- ------------  ---------------      ----- ------------  ---------------
    75      1.015258   8 C  s               108      1.015226  15 C  s         
    39      0.895774   4 C  s                54      0.895779   5 C  s         
    14      0.632182   1 C  py               29     -0.632168   2 C  py        
    33     -0.575024   3 H  s                66     -0.574998   6 H  s         
    93     -0.544325  11 H  s               126     -0.544295  18 H  s         
 
 Vector   28  Occ=0.000000D+00  E= 1.873983D-01
              MO Center=  1.8D-05, -1.2D-05, -1.2D-05, r^2= 9.4D+00
   Bfn.  Coefficient  Atom+Function         Bfn.  Coefficient  Atom+Function  
  ----- ------------  ---------------      ----- ------------  ---------------
    33      1.212548   3 H  s                66     -1.212562   6 H  s         
    69     -1.119513   7 H  s                99      1.119516  13 H  s         
    39      0.795132   4 C  s                54     -0.795133   5 C  s         
    93      0.670169  11 H  s               126     -0.670192  18 H  s         
     6     -0.586538   1 C  s                21      0.586547   2 C  s         
 
 Vector   29  Occ=0.000000D+00  E= 2.028117D-01
              MO Center=  2.2D-05,  7.4D-06, -2.3D-05, r^2= 1.3D+01
   Bfn.  Coefficient  Atom+Function         Bfn.  Coefficient  Atom+Function  
  ----- ------------  ---------------      ----- ------------  ---------------
    39      1.726345   4 C  s                54     -1.726370   5 C  s         
    87     -1.440204   9 H  s               102      1.440222  14 H  s         
    75     -1.201500   8 C  s               108      1.201518  15 C  s         
    90      0.858014  10 H  s               120     -0.858019  16 H  s         
    48      0.537676   4 C  pz               63      0.537684   5 C  pz        
 
 Vector   30  Occ=0.000000D+00  E= 2.055311D-01
              MO Center= -2.6D-05, -1.0D-05,  2.4D-05, r^2= 1.4D+01
   Bfn.  Coefficient  Atom+Function         Bfn.  Coefficient  Atom+Function  
  ----- ------------  ---------------      ----- ------------  ---------------
    39      2.215250   4 C  s                54      2.215222   5 C  s         
    75     -1.582624   8 C  s               108     -1.582606  15 C  s         
    87     -0.987955   9 H  s               102     -0.987939  14 H  s         
    93      0.735358  11 H  s               126      0.735355  18 H  s         
    14      0.660652   1 C  py               29     -0.660650   2 C  py        
 
 Vector   31  Occ=0.000000D+00  E= 2.217549D-01
              MO Center= -8.3D-05, -1.6D-05,  5.4D-05, r^2= 1.6D+01
   Bfn.  Coefficient  Atom+Function         Bfn.  Coefficient  Atom+Function  
  ----- ------------  ---------------      ----- ------------  ---------------
    96      1.486076  12 H  s               123      1.486005  17 H  s         
    93     -1.243902  11 H  s               126     -1.243868  18 H  s         
    33     -0.988937   3 H  s                66     -0.988938   6 H  s         
    14      0.851547   1 C  py               29     -0.851547   2 C  py        
    83      0.846077   8 C  py              116     -0.846037  15 C  py        
 
 Vector   32  Occ=0.000000D+00  E= 2.249508D-01
              MO Center=  2.0D-04,  6.4D-05, -8.7D-05, r^2= 1.8D+01
   Bfn.  Coefficient  Atom+Function         Bfn.  Coefficient  Atom+Function  
  ----- ------------  ---------------      ----- ------------  ---------------
    96      1.935394  12 H  s               123     -1.935516  17 H  s         
    83      1.023013   8 C  py              116      1.023057  15 C  py        
    93     -0.915220  11 H  s               126      0.915251  18 H  s         
    84     -0.854555   8 C  pz              117     -0.854607  15 C  pz        
    90     -0.847812  10 H  s               120      0.847881  16 H  s         
 
 Vector   33  Occ=0.000000D+00  E= 2.294442D-01
              MO Center= -1.3D-04, -6.7D-05,  3.8D-05, r^2= 1.2D+01
   Bfn.  Coefficient  Atom+Function         Bfn.  Coefficient  Atom+Function  
  ----- ------------  ---------------      ----- ------------  ---------------
    87     -1.164676   9 H  s               102     -1.164671  14 H  s         
    69      1.098916   7 H  s                99      1.098879  13 H  s         
    90      0.973611  10 H  s               120      0.973531  16 H  s         
    33      0.893554   3 H  s                66      0.893563   6 H  s         
    47      0.832639   4 C  py               62     -0.832612   5 C  py        
 
 Vector   34  Occ=0.000000D+00  E= 2.392445D-01
              MO Center=  4.9D-06,  7.9D-06, -2.1D-06, r^2= 1.3D+01
   Bfn.  Coefficient  Atom+Function         Bfn.  Coefficient  Atom+Function  
  ----- ------------  ---------------      ----- ------------  ---------------
    14      1.747536   1 C  py               29     -1.747533   2 C  py        
    90      1.670768  10 H  s               120      1.670759  16 H  s         
    33     -1.387137   3 H  s                66     -1.387126   6 H  s         
    48     -1.362005   4 C  pz               63      1.361998   5 C  pz        
    87      1.310726   9 H  s               102      1.310720  14 H  s         
 
 Vector   35  Occ=0.000000D+00  E= 2.481511D-01
              MO Center= -2.6D-06, -3.2D-06,  9.9D-06, r^2= 1.3D+01
   Bfn.  Coefficient  Atom+Function         Bfn.  Coefficient  Atom+Function  
  ----- ------------  ---------------      ----- ------------  ---------------
    90      1.671311  10 H  s               120     -1.671297  16 H  s         
    93     -1.278471  11 H  s               126      1.278487  18 H  s         
    69     -1.257187   7 H  s                84      1.252542   8 C  pz        
    99      1.257188  13 H  s               117      1.252523  15 C  pz        
    87      1.241859   9 H  s               102     -1.241838  14 H  s         
 
 Vector   36  Occ=0.000000D+00  E= 2.605816D-01
              MO Center= -2.7D-05,  1.0D-04,  2.1D-05, r^2= 1.3D+01
   Bfn.  Coefficient  Atom+Function         Bfn.  Coefficient  Atom+Function  
  ----- ------------  ---------------      ----- ------------  ---------------
    33      1.586142   3 H  s                66     -1.585976   6 H  s         
    48      1.262111   4 C  pz               63      1.262118   5 C  pz        
    39     -1.247799   4 C  s                54      1.247898   5 C  s         
    87     -1.169063   9 H  s               102      1.169044  14 H  s         
    14     -1.019918   1 C  py               29     -1.019817   2 C  py        
 
 Vector   37  Occ=0.000000D+00  E= 2.664402D-01
              MO Center=  3.4D-05, -8.7D-05, -1.8D-05, r^2= 1.1D+01
   Bfn.  Coefficient  Atom+Function         Bfn.  Coefficient  Atom+Function  
  ----- ------------  ---------------      ----- ------------  ---------------
     6      1.504389   1 C  s                21      1.504388   2 C  s         
    33     -1.424360   3 H  s                66     -1.424508   6 H  s         
    69      1.160936   7 H  s                99      1.160873  13 H  s         
    96     -1.126015  12 H  s               123     -1.126069  17 H  s         
    39     -0.961526   4 C  s                54     -0.961390   5 C  s         
 
 Vector   38  Occ=0.000000D+00  E= 2.801697D-01
              MO Center= -2.8D-05, -4.5D-07,  1.3D-05, r^2= 1.1D+01
   Bfn.  Coefficient  Atom+Function         Bfn.  Coefficient  Atom+Function  
  ----- ------------  ---------------      ----- ------------  ---------------
    82      1.696604   8 C  px              115     -1.696577  15 C  px        
    46      1.389474   4 C  px               61     -1.389444   5 C  px        
    39     -1.048041   4 C  s                54     -1.048023   5 C  s         
    47     -0.989945   4 C  py               62      0.989966   5 C  py        
    69     -0.959336   7 H  s                99     -0.959360  13 H  s         
 
 Vector   39  Occ=0.000000D+00  E= 2.956599D-01
              MO Center=  2.1D-07, -8.4D-07, -5.0D-06, r^2= 1.1D+01
   Bfn.  Coefficient  Atom+Function         Bfn.  Coefficient  Atom+Function  
  ----- ------------  ---------------      ----- ------------  ---------------
     6      2.133283   1 C  s                21     -2.133314   2 C  s         
    47     -1.429372   4 C  py               62     -1.429400   5 C  py        
    82      1.258313   8 C  px              115      1.258312  15 C  px        
    69     -1.193433   7 H  s                99      1.193453  13 H  s         
    39     -1.136822   4 C  s                54      1.136838   5 C  s         
 
 Vector   40  Occ=0.000000D+00  E= 3.233665D-01
              MO Center=  5.9D-04,  8.8D-05, -2.5D-04, r^2= 1.3D+01
   Bfn.  Coefficient  Atom+Function         Bfn.  Coefficient  Atom+Function  
  ----- ------------  ---------------      ----- ------------  ---------------
     6      2.252211   1 C  s                21     -2.252186   2 C  s         
    48      1.467513   4 C  pz               63      1.467566   5 C  pz        
    46     -1.430241   4 C  px               61     -1.429998   5 C  px        
    82     -1.102496   8 C  px              115     -1.102797  15 C  px        
    14     -0.971240   1 C  py               29     -0.970858   2 C  py        
 
 Vector   41  Occ=0.000000D+00  E= 3.245270D-01
              MO Center= -5.9D-04, -1.1D-04,  2.6D-04, r^2= 1.3D+01
   Bfn.  Coefficient  Atom+Function         Bfn.  Coefficient  Atom+Function  
  ----- ------------  ---------------      ----- ------------  ---------------
    14      0.876427   1 C  py               29     -0.876757   2 C  py        
    82     -0.866718   8 C  px              115      0.866329  15 C  px        
    39      0.687973   4 C  s                54      0.688142   5 C  s         
    46      0.668990   4 C  px               61     -0.669503   5 C  px        
    33     -0.632571   3 H  s                66     -0.632828   6 H  s         
 
 Vector   42  Occ=0.000000D+00  E= 3.432590D-01
              MO Center= -1.2D-05,  1.6D-06, -3.0D-05, r^2= 1.2D+01
   Bfn.  Coefficient  Atom+Function         Bfn.  Coefficient  Atom+Function  
  ----- ------------  ---------------      ----- ------------  ---------------
    14      3.444085   1 C  py               29     -3.444171   2 C  py        
    33     -2.579893   3 H  s                66     -2.579961   6 H  s         
    39      1.788148   4 C  s                54      1.788160   5 C  s         
    46      1.580225   4 C  px               61     -1.580348   5 C  px        
    47      1.509705   4 C  py               62     -1.509691   5 C  py        
 
 Vector   43  Occ=0.000000D+00  E= 3.507604D-01
              MO Center= -1.1D-04,  1.1D-04,  2.8D-05, r^2= 1.0D+01
   Bfn.  Coefficient  Atom+Function         Bfn.  Coefficient  Atom+Function  
  ----- ------------  ---------------      ----- ------------  ---------------
     6      1.991041   1 C  s                21     -1.991229   2 C  s         
    46     -1.834833   4 C  px               61     -1.835135   5 C  px        
    14     -1.075704   1 C  py               29     -1.075928   2 C  py        
    75     -0.865008   8 C  s               108      0.865074  15 C  s         
    33      0.732729   3 H  s                66     -0.732970   6 H  s         
 
 Vector   44  Occ=0.000000D+00  E= 3.530162D-01
              MO Center=  2.1D-04, -9.8D-05, -6.9D-05, r^2= 1.3D+01
   Bfn.  Coefficient  Atom+Function         Bfn.  Coefficient  Atom+Function  
  ----- ------------  ---------------      ----- ------------  ---------------
    84      1.780610   8 C  pz              117     -1.780758  15 C  pz        
    14      1.536964   1 C  py               29     -1.536697   2 C  py        
    46      1.493930   4 C  px               61     -1.493484   5 C  px        
    33     -1.443251   3 H  s                66     -1.443075   6 H  s         
    48     -1.090855   4 C  pz               63      1.090789   5 C  pz        
 
 Vector   45  Occ=0.000000D+00  E= 3.608727D-01
              MO Center= -5.5D-05, -1.5D-05,  5.2D-05, r^2= 1.4D+01
   Bfn.  Coefficient  Atom+Function         Bfn.  Coefficient  Atom+Function  
  ----- ------------  ---------------      ----- ------------  ---------------
    83      1.474059   8 C  py              116      1.474160  15 C  py        
    84      1.038532   8 C  pz              117      1.038383  15 C  pz        
    93     -0.744499  11 H  s               126      0.744569  18 H  s         
    47     -0.492148   4 C  py               62     -0.492259   5 C  py        
    90      0.459052  10 H  s               120     -0.458997  16 H  s         
 
 Vector   46  Occ=0.000000D+00  E= 3.939139D-01
              MO Center=  3.1D-05,  1.8D-05,  1.9D-05, r^2= 7.6D+00
   Bfn.  Coefficient  Atom+Function         Bfn.  Coefficient  Atom+Function  
  ----- ------------  ---------------      ----- ------------  ---------------
    46      1.004203   4 C  px               61      1.004225   5 C  px        
    84      0.794772   8 C  pz              117      0.794759  15 C  pz        
     6      0.739812   1 C  s                13      0.743172   1 C  px        
    21     -0.739814   2 C  s                28      0.743116   2 C  px        
    87     -0.659102   9 H  s               102      0.659103  14 H  s         
 
 Vector   47  Occ=0.000000D+00  E= 4.067162D-01
              MO Center= -4.8D-05, -1.7D-05, -3.8D-06, r^2= 1.1D+01
   Bfn.  Coefficient  Atom+Function         Bfn.  Coefficient  Atom+Function  
  ----- ------------  ---------------      ----- ------------  ---------------
    83      1.826735   8 C  py              116     -1.826705  15 C  py        
    13      1.605304   1 C  px               28     -1.605450   2 C  px        
    14      1.039096   1 C  py               29     -1.039029   2 C  py        
    96      0.991284  12 H  s               123      0.991305  17 H  s         
    48     -0.919770   4 C  pz               63      0.919744   5 C  pz        
 
 Vector   48  Occ=0.000000D+00  E= 4.185211D-01
              MO Center=  6.6D-06, -5.3D-06, -1.2D-05, r^2= 7.8D+00
   Bfn.  Coefficient  Atom+Function         Bfn.  Coefficient  Atom+Function  
  ----- ------------  ---------------      ----- ------------  ---------------
    47      1.373341   4 C  py               62     -1.373314   5 C  py        
    69      0.829783   7 H  s                99      0.829760  13 H  s         
    68      0.541833   7 H  s                98      0.541829  13 H  s         
    48      0.491609   4 C  pz               63     -0.491561   5 C  pz        
    84     -0.418982   8 C  pz              117      0.418981  15 C  pz        
 
 Vector   49  Occ=0.000000D+00  E= 4.267530D-01
              MO Center= -4.1D-06,  2.2D-05,  8.9D-06, r^2= 6.1D+00
   Bfn.  Coefficient  Atom+Function         Bfn.  Coefficient  Atom+Function  
  ----- ------------  ---------------      ----- ------------  ---------------
    15     -3.206839   1 C  pz               30     -3.206821   2 C  pz        
     6      2.949478   1 C  s                21     -2.949471   2 C  s         
    13      2.630618   1 C  px               28      2.630614   2 C  px        
    33      1.926576   3 H  s                66     -1.926563   6 H  s         
    14     -1.308551   1 C  py               29     -1.308556   2 C  py        
 
 Vector   50  Occ=0.000000D+00  E= 4.505599D-01
              MO Center= -2.4D-06, -9.5D-06, -9.9D-06, r^2= 8.1D+00
   Bfn.  Coefficient  Atom+Function         Bfn.  Coefficient  Atom+Function  
  ----- ------------  ---------------      ----- ------------  ---------------
    15      2.071676   1 C  pz               30      2.071678   2 C  pz        
    13     -1.428411   1 C  px               28     -1.428404   2 C  px        
    48      1.297156   4 C  pz               63      1.297138   5 C  pz        
    69     -1.234836   7 H  s                99      1.234825  13 H  s         
     6     -1.176074   1 C  s                21      1.176072   2 C  s         
 
 Vector   51  Occ=0.000000D+00  E= 4.906428D-01
              MO Center= -2.0D-06, -2.9D-06,  3.8D-06, r^2= 8.0D+00
   Bfn.  Coefficient  Atom+Function         Bfn.  Coefficient  Atom+Function  
  ----- ------------  ---------------      ----- ------------  ---------------
    39      1.514377   4 C  s                54      1.514349   5 C  s         
    14      1.400065   1 C  py               29     -1.400063   2 C  py        
    33     -1.047520   3 H  s                66     -1.047545   6 H  s         
    75     -0.881355   8 C  s               108     -0.881340  15 C  s         
    46     -0.686080   4 C  px               61      0.686073   5 C  px        
 
 Vector   52  Occ=0.000000D+00  E= 5.127440D-01
              MO Center=  4.4D-06,  1.8D-05, -4.5D-05, r^2= 7.4D+00
   Bfn.  Coefficient  Atom+Function         Bfn.  Coefficient  Atom+Function  
  ----- ------------  ---------------      ----- ------------  ---------------
    15      3.031030   1 C  pz               30     -3.031130   2 C  pz        
    47     -2.465025   4 C  py               62      2.465130   5 C  py        
     6      1.933022   1 C  s                21      1.932859   2 C  s         
    39     -1.578126   4 C  s                54     -1.578065   5 C  s         
    69     -1.191549   7 H  s                99     -1.191618  13 H  s         
 
 Vector   53  Occ=0.000000D+00  E= 5.206892D-01
              MO Center=  5.0D-05,  9.7D-06, -3.3D-05, r^2= 9.0D+00
   Bfn.  Coefficient  Atom+Function         Bfn.  Coefficient  Atom+Function  
  ----- ------------  ---------------      ----- ------------  ---------------
    47      2.334509   4 C  py               62      2.334671   5 C  py        
    69      2.021698   7 H  s                99     -2.021777  13 H  s         
     6      1.511087   1 C  s                21     -1.510963   2 C  s         
    84     -1.141813   8 C  pz              117     -1.141902  15 C  pz        
    46     -1.128834   4 C  px               61     -1.128881   5 C  px        
 
 Vector   54  Occ=0.000000D+00  E= 5.307641D-01
              MO Center= -1.7D-05, -1.7D-06,  5.2D-05, r^2= 9.1D+00
   Bfn.  Coefficient  Atom+Function         Bfn.  Coefficient  Atom+Function  
  ----- ------------  ---------------      ----- ------------  ---------------
    14     -3.933257   1 C  py               29     -3.933173   2 C  py        
     6      3.740917   1 C  s                21     -3.741002   2 C  s         
    48      3.474713   4 C  pz               63      3.474611   5 C  pz        
    47      3.019339   4 C  py               62      3.019239   5 C  py        
    33      2.558787   3 H  s                66     -2.558735   6 H  s         
 
 Vector   55  Occ=0.000000D+00  E= 5.361862D-01
              MO Center=  6.2D-05, -6.8D-06, -3.9D-06, r^2= 1.0D+01
   Bfn.  Coefficient  Atom+Function         Bfn.  Coefficient  Atom+Function  
  ----- ------------  ---------------      ----- ------------  ---------------
    14      2.278367   1 C  py               29      2.278579   2 C  py        
    33     -2.106020   3 H  s                66      2.106135   6 H  s         
    90      1.617658  10 H  s               120     -1.617834  16 H  s         
    93     -1.303683  11 H  s               126      1.303583  18 H  s         
    84      1.227590   8 C  pz              117      1.227724  15 C  pz        
 
 Vector   56  Occ=0.000000D+00  E= 5.393771D-01
              MO Center= -8.5D-05,  2.8D-07,  2.0D-05, r^2= 1.0D+01
   Bfn.  Coefficient  Atom+Function         Bfn.  Coefficient  Atom+Function  
  ----- ------------  ---------------      ----- ------------  ---------------
    46      1.907637   4 C  px               61     -1.907605   5 C  px        
    14      1.885248   1 C  py               29     -1.885007   2 C  py        
    47     -1.881340   4 C  py               62      1.881269   5 C  py        
[...]
     6      1.795852   1 C  s                21     -1.795759   2 C  s         
 
 Vector  111  Occ=0.000000D+00  E= 2.855245D+00
              MO Center=  5.4D-06,  3.8D-07, -5.3D-07, r^2= 9.0D+00
   Bfn.  Coefficient  Atom+Function         Bfn.  Coefficient  Atom+Function  
  ----- ------------  ---------------      ----- ------------  ---------------
    75     -3.189568   8 C  s               108     -3.189563  15 C  s         
    74      2.912244   8 C  s               107      2.912251  15 C  s         
     6      2.144121   1 C  s                21      2.144120   2 C  s         
    73     -2.098953   8 C  s               106     -2.098958  15 C  s         
    39     -2.061019   4 C  s                54     -2.061051   5 C  s         
 
 Vector  112  Occ=0.000000D+00  E= 2.912262D+00
              MO Center= -1.9D-05, -4.4D-06,  1.6D-05, r^2= 4.4D+00
   Bfn.  Coefficient  Atom+Function         Bfn.  Coefficient  Atom+Function  
  ----- ------------  ---------------      ----- ------------  ---------------
     6      5.646852   1 C  s                21     -5.646859   2 C  s         
     5     -3.680005   1 C  s                20      3.680011   2 C  s         
    39      3.612070   4 C  s                54     -3.611970   5 C  s         
    15     -2.530371   1 C  pz               30     -2.530360   2 C  pz        
    13      2.327939   1 C  px               28      2.327943   2 C  px        
 
 Vector  113  Occ=0.000000D+00  E= 2.992943D+00
              MO Center=  1.7D-04,  8.6D-05, -1.5D-04, r^2= 7.1D+00
   Bfn.  Coefficient  Atom+Function         Bfn.  Coefficient  Atom+Function  
  ----- ------------  ---------------      ----- ------------  ---------------
    39      5.898725   4 C  s                54      5.899524   5 C  s         
    38     -3.663604   4 C  s                53     -3.664061   5 C  s         
    75     -3.245554   8 C  s               108     -3.245828  15 C  s         
    37      2.376713   4 C  s                52      2.377005   5 C  s         
    14      2.274924   1 C  py               29     -2.275102   2 C  py        
 
 Vector  114  Occ=0.000000D+00  E= 2.998614D+00
              MO Center= -1.5D-04, -8.4D-05,  1.2D-04, r^2= 5.1D+00
   Bfn.  Coefficient  Atom+Function         Bfn.  Coefficient  Atom+Function  
  ----- ------------  ---------------      ----- ------------  ---------------
     6      6.105600   1 C  s                21     -6.105460   2 C  s         
    39     -5.599448   4 C  s                54      5.598693   5 C  s         
    38      3.170800   4 C  s                53     -3.170334   5 C  s         
     5     -3.079284   1 C  s                20      3.079231   2 C  s         
    37     -2.027920   4 C  s                52      2.027618   5 C  s         
 
 Vector  115  Occ=0.000000D+00  E= 1.172487D+01
              MO Center= -1.0D-06,  1.8D-06, -3.7D-06, r^2= 1.8D+00
   Bfn.  Coefficient  Atom+Function         Bfn.  Coefficient  Atom+Function  
  ----- ------------  ---------------      ----- ------------  ---------------
     4     -2.205863   1 C  s                19     -2.205863   2 C  s         
     3      2.150539   1 C  s                18      2.150539   2 C  s         
     5      1.860320   1 C  s                20      1.860321   2 C  s         
     6     -1.167400   1 C  s                21     -1.167402   2 C  s         
     2     -1.130448   1 C  s                17     -1.130448   2 C  s         
 
 Vector  116  Occ=0.000000D+00  E= 1.183879D+01
              MO Center=  1.8D-05, -1.5D-06, -5.4D-06, r^2= 9.6D+00
   Bfn.  Coefficient  Atom+Function         Bfn.  Coefficient  Atom+Function  
  ----- ------------  ---------------      ----- ------------  ---------------
    73     -2.382280   8 C  s               106      2.382295  15 C  s         
    72      2.308298   8 C  s               105     -2.308313  15 C  s         
    74      2.086182   8 C  s               107     -2.086197  15 C  s         
    75     -1.530774   8 C  s               108      1.530786  15 C  s         
    71     -1.208892   8 C  s               104      1.208899  15 C  s         
 
 Vector  117  Occ=0.000000D+00  E= 1.185926D+01
              MO Center= -1.9D-05, -5.8D-06,  9.1D-06, r^2= 8.9D+00
   Bfn.  Coefficient  Atom+Function         Bfn.  Coefficient  Atom+Function  
  ----- ------------  ---------------      ----- ------------  ---------------
    73     -2.309706   8 C  s               106     -2.309690  15 C  s         
    72      2.225187   8 C  s               105      2.225171  15 C  s         
    74      2.053129   8 C  s               107      2.053115  15 C  s         
    75     -1.583861   8 C  s               108     -1.583849  15 C  s         
    71     -1.163576   8 C  s               104     -1.163567  15 C  s         
 
 Vector  118  Occ=0.000000D+00  E= 1.191875D+01
              MO Center=  1.1D-04,  5.5D-05, -1.1D-04, r^2= 4.3D+00
   Bfn.  Coefficient  Atom+Function         Bfn.  Coefficient  Atom+Function  
  ----- ------------  ---------------      ----- ------------  ---------------
    37     -2.472768   4 C  s                52      2.472971   5 C  s         
    39     -2.375552   4 C  s                54      2.375732   5 C  s         
    36      2.330661   4 C  s                51     -2.330851   5 C  s         
    38      2.313957   4 C  s                53     -2.314147   5 C  s         
    35     -1.212642   4 C  s                50      1.212741   5 C  s         
 
 Vector  119  Occ=0.000000D+00  E= 1.192067D+01
              MO Center= -1.0D-04, -5.0D-05,  1.1D-04, r^2= 4.1D+00
   Bfn.  Coefficient  Atom+Function         Bfn.  Coefficient  Atom+Function  
  ----- ------------  ---------------      ----- ------------  ---------------
    37     -2.430583   4 C  s                52     -2.430376   5 C  s         
    36      2.278915   4 C  s                51      2.278720   5 C  s         
    38      2.266550   4 C  s                53      2.266356   5 C  s         
    39     -2.095602   4 C  s                54     -2.095403   5 C  s         
    35     -1.186130   4 C  s                50     -1.186029   5 C  s         
 
 Vector  120  Occ=0.000000D+00  E= 1.214296D+01
              MO Center= -2.4D-06,  2.2D-06, -3.9D-06, r^2= 8.1D-01
   Bfn.  Coefficient  Atom+Function         Bfn.  Coefficient  Atom+Function  
  ----- ------------  ---------------      ----- ------------  ---------------
     6      3.418906   1 C  s                21     -3.418900   2 C  s         
     5     -2.629787   1 C  s                20      2.629786   2 C  s         
     4      2.581456   1 C  s                19     -2.581455   2 C  s         
     3     -2.363419   1 C  s                18      2.363418   2 C  s         
     2      1.221668   1 C  s                17     -1.221667   2 C  s         
 
 Vector  121  Occ=0.000000D+00  E= 6.268035D+01
              MO Center= -1.3D-06,  1.8D-06, -3.5D-06, r^2= 1.5D+00
   Bfn.  Coefficient  Atom+Function         Bfn.  Coefficient  Atom+Function  
  ----- ------------  ---------------      ----- ------------  ---------------
     2      1.911139   1 C  s                17      1.911139   2 C  s         
     3     -1.448273   1 C  s                18     -1.448273   2 C  s         
     1     -1.133669   1 C  s                16     -1.133669   2 C  s         
     4      0.963061   1 C  s                19      0.963061   2 C  s         
     5     -0.769782   1 C  s                20     -0.769782   2 C  s         
 
 Vector  122  Occ=0.000000D+00  E= 6.278717D+01
              MO Center=  2.1D-05, -1.2D-06, -6.5D-06, r^2= 9.4D+00
   Bfn.  Coefficient  Atom+Function         Bfn.  Coefficient  Atom+Function  
  ----- ------------  ---------------      ----- ------------  ---------------
    71      2.082071   8 C  s               104     -2.082087  15 C  s         
    72     -1.587196   8 C  s               105      1.587208  15 C  s         
    70     -1.230809   8 C  s               103      1.230818  15 C  s         
    73      1.064487   8 C  s               106     -1.064495  15 C  s         
    74     -0.883271   8 C  s               107      0.883278  15 C  s         
 
 Vector  123  Occ=0.000000D+00  E= 6.280633D+01
              MO Center= -2.1D-05, -6.0D-06,  1.0D-05, r^2= 8.5D+00
   Bfn.  Coefficient  Atom+Function         Bfn.  Coefficient  Atom+Function  
  ----- ------------  ---------------      ----- ------------  ---------------
    71      1.981038   8 C  s               104      1.981021  15 C  s         
    72     -1.512427   8 C  s               105     -1.512415  15 C  s         
    70     -1.170415   8 C  s               103     -1.170405  15 C  s         
    73      1.019675   8 C  s               106      1.019666  15 C  s         
    74     -0.858208   8 C  s               107     -0.858201  15 C  s         
 
 Vector  124  Occ=0.000000D+00  E= 6.286330D+01
              MO Center=  4.1D-05,  2.2D-05, -4.0D-05, r^2= 4.0D+00
   Bfn.  Coefficient  Atom+Function         Bfn.  Coefficient  Atom+Function  
  ----- ------------  ---------------      ----- ------------  ---------------
    35      2.087717   4 C  s                50     -2.087780   5 C  s         
    36     -1.601916   4 C  s                51      1.601964   5 C  s         
    34     -1.231061   4 C  s                49      1.231098   5 C  s         
    37      1.105354   4 C  s                52     -1.105388   5 C  s         
    39      1.005122   4 C  s                54     -1.005152   5 C  s         
 
 Vector  125  Occ=0.000000D+00  E= 6.286919D+01
              MO Center= -3.8D-05, -1.7D-05,  4.0D-05, r^2= 3.9D+00
   Bfn.  Coefficient  Atom+Function         Bfn.  Coefficient  Atom+Function  
  ----- ------------  ---------------      ----- ------------  ---------------
    35      2.019200   4 C  s                50      2.019134   5 C  s         
    36     -1.549180   4 C  s                51     -1.549129   5 C  s         
    34     -1.190604   4 C  s                49     -1.190565   5 C  s         
    37      1.075428   4 C  s                52      1.075393   5 C  s         
    38     -0.954095   4 C  s                53     -0.954064   5 C  s         
 
 Vector  126  Occ=0.000000D+00  E= 6.309395D+01
              MO Center= -2.4D-06,  2.2D-06, -3.7D-06, r^2= 5.4D-01
   Bfn.  Coefficient  Atom+Function         Bfn.  Coefficient  Atom+Function  
  ----- ------------  ---------------      ----- ------------  ---------------
     2      2.102397   1 C  s                17     -2.102396   2 C  s         
     3     -1.628308   1 C  s                18      1.628307   2 C  s         
     6      1.471075   1 C  s                21     -1.471073   2 C  s         
     1     -1.233941   1 C  s                16      1.233940   2 C  s         
     4      1.161262   1 C  s                19     -1.161261   2 C  s         
 

   alpha - beta orbital overlaps 
   ----------------------------- 


   alpha      1      2      3      4      5      6      7      8      9     10
    beta      1      2      3      4      5      6      7      8      9     10
 overlap   1.000  1.000  1.000  1.000  1.000  1.000  0.999  1.000  0.999  1.000


   alpha     11     12     13     14     15     16     17     18     19     20
    beta     11     12     13     14     15     16     17     18     19     20
 overlap   1.000  1.000  1.000  1.000  1.000  1.000  0.999  0.999  0.999  1.000


   alpha     21     22     23     24     25     26     27     28     29     30
    beta     21     22     23     24     25     26     27     28     29     30
 overlap   1.000  0.999  1.000  0.999  0.965  0.995  0.955  0.999  0.999  0.988


   alpha     31     32     33     34     35     36     37     38     39     40
    beta     31     32     33     34     35     36     37     38     39     40
 overlap   0.899  0.993  0.889  0.973  0.999  0.998  0.992  0.999  0.999  0.998


   alpha     41     42     43     44     45     46     47     48     49     50
    beta     41     42     43     44     45     46     47     48     49     50
 overlap   0.999  0.999  0.999  0.999  1.000  0.999  0.996  0.995  1.000  0.999


   alpha     51     52     53     54     55     56     57     58     59     60
    beta     51     52     53     54     55     56     57     58     59     60
 overlap   0.991  0.991  0.995  0.993  0.989  0.998  0.991  0.999  0.993  0.998


   alpha     61     62     63     64     65     66     67     68     69     70
    beta     61     62     63     64     65     66     67     68     69     70
 overlap   0.992  0.995  0.996  0.995  0.998  0.933  0.933  0.963  0.960  0.999


   alpha     71     72     73     74     75     76     77     78     79     80
    beta     71     72     73     74     75     76     77     78     79     80
 overlap   1.000  0.999  1.000  1.000  1.000  1.000  0.999  0.999  1.000  0.979


   alpha     81     82     83     84     85     86     87     88     89     90
    beta     81     82     83     84     85     86     87     88     89     90
 overlap   0.966  0.999  0.988  0.967  0.977  0.983  0.998  0.993  0.999  0.999


   alpha     91     92     93     94     95     96     97     98     99    100
    beta     91     92     93     94     95     96     97     98     99    100
 overlap   1.000  0.998  1.000  1.000  1.000  1.000  1.000  1.000  1.000  1.000


   alpha    101    102    103    104    105    106    107    108    109    110
    beta    101    102    103    104    105    106    107    108    109    110
 overlap   1.000  0.999  0.999  1.000  1.000  1.000  1.000  1.000  1.000  1.000


   alpha    111    112    113    114    115    116    117    118    119    120
    beta    111    112    113    114    115    116    117    118    119    120
 overlap   1.000  0.999  1.000  0.999  1.000  1.000  1.000  1.000  1.000  1.000


   alpha    121    122    123    124    125    126
    beta    121    122    123    124    125    126
 overlap   1.000  1.000  1.000  1.000  1.000  1.000

     --------------------------
     Expectation value of S2:  
     --------------------------
      <S2> =      0.7510 (Exact =     0.7500)
 

 center of mass
 --------------
 x =  -0.00000021 y =   0.00000024 z =  -0.00000042

 moments of inertia (a.u.)
 ------------------
         465.057583215778        -185.378651954327         540.569113375644
        -185.378651954327        1445.142156766476         121.941810457499
         540.569113375644         121.941810457499        1178.634610414692
 
     Multipole analysis of the density
     ---------------------------------
 
     L   x y z        total         alpha         beta         nuclear
     -   - - -        -----         -----         ----         -------
     0   0 0 0     -1.000000    -25.000000    -24.000000     48.000000
 
     1   1 0 0      0.000005      0.000004      0.000001     -0.000000
     1   0 1 0      0.000003      0.000004     -0.000001     -0.000000
     1   0 0 1     -0.000003     -0.000003      0.000000      0.000000
 
     2   2 0 0    -56.530815   -367.662001   -346.481674    657.612860
     2   1 1 0     -3.794834    -58.386353    -54.840180    109.431699
     2   1 0 1     10.242483    171.058882    160.931098   -321.747497
     2   0 2 0    -36.335245    -57.018977    -52.465323     73.149055
     2   0 1 1      3.486922     39.229692     36.273393    -72.016163
     2   0 0 2    -43.750972   -140.890210   -129.405123    226.544361
 

 Task  times  cpu:      128.8s     wall:      131.6s
 
 
                                NWChem Input Module
                                -------------------
 
 
 Summary of allocated global arrays
-----------------------------------
  No active global arrays



                         GA Statistics for process    0
                         ------------------------------

       create   destroy   get      put      acc     scatter   gather  read&inc
calls: 3222     3222     8.22e+05 1.95e+04 6.57e+05    0        0     3870     
number of processes/call 7.69e+00 8.41e+01 6.20e+00 0.00e+00 0.00e+00
bytes total:             1.23e+09 1.59e+08 6.65e+08 0.00e+00 0.00e+00 3.10e+04
bytes remote:            9.90e+08 8.19e+07 5.62e+08 0.00e+00 0.00e+00 0.00e+00
Max memory consumed for GA by this process: 1165312 bytes
 
 
 
                                     CITATION
                                     --------
                Please cite the following reference when publishing
                           results obtained with NWChem:
 
          E. Apr, E. J. Bylaska, W. A. de Jong, N. Govind, K. Kowalski,
       T. P. Straatsma, M. Valiev, H. J. J. van Dam, Y. Alexeev, J. Anchell,
       V. Anisimov, F. W. Aquino, R. Atta-Fynn, J. Autschbach, N. P. Bauman,
     J. C. Becca, D. E. Bernholdt, K. Bhaskaran-Nair, S. Bogatko, P. Borowski,
        J. Boschen, J. Brabec, A. Bruner, E. Caut, Y. Chen, G. N. Chuev,
      C. J. Cramer, J. Daily, M. J. O. Deegan, T. H. Dunning Jr., M. Dupuis,
   K. G. Dyall, G. I. Fann, S. A. Fischer, A. Fonari, H. Frchtl, L. Gagliardi,
      J. Garza, N. Gawande, S. Ghosh, K. Glaesemann, A. W. Gtz, J. Hammond,
       V. Helms, E. D. Hermes, K. Hirao, S. Hirata, M. Jacquelin, L. Jensen,
   B. G. Johnson, H. Jnsson, R. A. Kendall, M. Klemm, R. Kobayashi, V. Konkov,
      S. Krishnamoorthy, M. Krishnan, Z. Lin, R. D. Lins, R. J. Littlefield,
      A. J. Logsdail, K. Lopata, W. Ma, A. V. Marenich, J. Martin del Campo,
   D. Mejia-Rodriguez, J. E. Moore, J. M. Mullin, T. Nakajima, D. R. Nascimento,
    J. A. Nichols, P. J. Nichols, J. Nieplocha, A. Otero-de-la-Roza, B. Palmer,
    A. Panyala, T. Pirojsirikul, B. Peng, R. Peverati, J. Pittner, L. Pollack,
   R. M. Richard, P. Sadayappan, G. C. Schatz, W. A. Shelton, D. W. Silverstein,
   D. M. A. Smith, T. A. Soares, D. Song, M. Swart, H. L. Taylor, G. S. Thomas,
            V. Tipparaju, D. G. Truhlar, K. Tsemekhman, T. Van Voorhis,
     . Vzquez-Mayagoitia, P. Verma, O. Villa, A. Vishnu, K. D. Vogiatzis,
        D. Wang, J. H. Weare, M. J. Williamson, T. L. Windus, K. Woliski,
        A. T. Wong, Q. Wu, C. Yang, Q. Yu, M. Zacharias, Z. Zhang, Y. Zhao,
                                and R. J. Harrison
                        "NWChem: Past, present, and future
                         J. Chem. Phys. 152, 184102 (2020)
                               doi:10.1063/5.0004997
 
                                      AUTHORS
                                      -------
     E. Apra, E. J. Bylaska, N. Govind, K. Kowalski, M. Valiev, W. A. de Jong,
      T. P. Straatsma, H. J. J. van Dam, D. Wang, T. L. Windus, N. P. Bauman,
       A. Panyala, J. Hammond, J. Autschbach, K. Bhaskaran-Nair, J. Brabec,
    K. Lopata, S. A. Fischer, S. Krishnamoorthy, M. Jacquelin, W. Ma, M. Klemm,
       O. Villa, Y. Chen, V. Anisimov, F. Aquino, S. Hirata, M. T. Hackler,
           Eric Hermes, L. Jensen, J. E. Moore, J. C. Becca, V. Konjkov,
            D. Mejia-Rodriguez, T. Risthaus, M. Malagoli, A. Marenich,
   A. Otero-de-la-Roza, J. Mullin, P. Nichols, R. Peverati, J. Pittner, Y. Zhao,
        P.-D. Fan, A. Fonari, M. J. Williamson, R. J. Harrison, J. R. Rehr,
      M. Dupuis, D. Silverstein, D. M. A. Smith, J. Nieplocha, V. Tipparaju,
      M. Krishnan, B. E. Van Kuiken, A. Vazquez-Mayagoitia, M. Swart, Q. Wu,
   T. Van Voorhis, A. A. Auer, M. Nooijen, L. D. Crosby, E. Brown, G. Cisneros,
     G. I. Fann, H. Fruchtl, J. Garza, K. Hirao, R. A. Kendall, J. A. Nichols,
       K. Tsemekhman, K. Wolinski, J. Anchell, D. E. Bernholdt, P. Borowski,
       T. Clark, D. Clerc, H. Dachsel, M. J. O. Deegan, K. Dyall, D. Elwood,
      E. Glendening, M. Gutowski, A. C. Hess, J. Jaffe, B. G. Johnson, J. Ju,
        R. Kobayashi, R. Kutteh, Z. Lin, R. Littlefield, X. Long, B. Meng,
      T. Nakajima, S. Niu, L. Pollack, M. Rosing, K. Glaesemann, G. Sandrone,
      M. Stave, H. Taylor, G. Thomas, J. H. van Lenthe, A. T. Wong, Z. Zhang.

 Total times  cpu:      128.9s     wall:      131.7s
