 
             Northwest Computational Chemistry Package (NWChem) 7.0.0
             --------------------------------------------------------
 
 
                    Environmental Molecular Sciences Laboratory
                       Pacific Northwest National Laboratory
                                Richland, WA 99352
 
                              Copyright (c) 1994-2020
                       Pacific Northwest National Laboratory
                            Battelle Memorial Institute
 
             NWChem is an open-source computational chemistry package
                        distributed under the terms of the
                      Educational Community License (ECL) 2.0
             A copy of the license is included with this distribution
                              in the LICENSE.TXT file
 
                                  ACKNOWLEDGMENT
                                  --------------

            This software and its documentation were developed at the
            EMSL at Pacific Northwest National Laboratory, a multiprogram
            national laboratory, operated for the U.S. Department of Energy
            by Battelle under Contract Number DE-AC05-76RL01830. Support
            for this work was provided by the Department of Energy Office
            of Biological and Environmental Research, Office of Basic
            Energy Sciences, and the Office of Advanced Scientific Computing.


                                NWChem Input Module
                                -------------------
 
 
 Summary of "ao basis" -> "" (spherical)
 ------------------------------------------------------------------------------
       Tag                 Description            Shells   Functions and Types
 ---------------- ------------------------------  ------  ---------------------
 *                        ahlrichs_vtz                on all atoms 



 Scaling coordinates for geometry "geometry" by  1.889725989
 (inverse scale =  0.529177249)

 
 
                             Geometry "geometry" -> ""
                             -------------------------
 
 Output coordinates in angstroms (scale by  1.889725989 to convert to a.u.)
 
  No.       Tag          Charge          X              Y              Z
 ---- ---------------- ---------- -------------- -------------- --------------
    1 C                    6.0000     0.11076816    -0.03318837    -0.04260944
    2 C                    6.0000     1.31972401    -0.39528439    -0.50818115
    3 C                    6.0000    -1.14609004    -0.16925047    -0.87118272
    4 C                    6.0000    -0.08170496     0.53700138     1.34396057
    5 H                    1.0000     1.44804850    -0.80632218    -1.51155811
    6 H                    1.0000     2.22189103    -0.29290471     0.09827535
    7 H                    1.0000    -0.93533527    -0.58903338    -1.86383561
    8 H                    1.0000    -1.63646062     0.80948984    -1.00771351
    9 H                    1.0000    -1.88058607    -0.82189755    -0.36959869
   10 H                    1.0000     0.86851227     0.60861333     1.88981206
   11 H                    1.0000    -0.77265462    -0.08773246     1.93500258
   12 H                    1.0000    -0.52959836     1.54411806     1.29769229
 
      Atomic Mass 
      ----------- 
 
      C                 12.000000
      H                  1.007825
 

 Effective nuclear repulsion energy (a.u.)     118.9770207296

            Nuclear Dipole moment (a.u.) 
            ----------------------------
        X                 Y               Z
 ---------------- ---------------- ----------------
    -0.0000000000     0.0000000000     0.0000000000
 
 
            XYZ format geometry
            -------------------
    12
 geometry
 C                     0.11076816    -0.03318837    -0.04260944
 C                     1.31972401    -0.39528439    -0.50818115
 C                    -1.14609004    -0.16925047    -0.87118272
 C                    -0.08170496     0.53700138     1.34396057
 H                     1.44804850    -0.80632218    -1.51155811
 H                     2.22189103    -0.29290471     0.09827535
 H                    -0.93533527    -0.58903338    -1.86383561
 H                    -1.63646062     0.80948984    -1.00771351
 H                    -1.88058607    -0.82189755    -0.36959869
 H                     0.86851227     0.60861333     1.88981206
 H                    -0.77265462    -0.08773246     1.93500258
 H                    -0.52959836     1.54411806     1.29769229
 
 ==============================================================================
                                internuclear distances
 ------------------------------------------------------------------------------
       center one      |      center two      | atomic units |  angstroms
 ------------------------------------------------------------------------------
    2 C                |   1 C                |     2.54198  |     1.34516
    3 C                |   1 C                |     2.85639  |     1.51154
    4 C                |   1 C                |     2.85639  |     1.51154
    5 H                |   2 C                |     2.06334  |     1.09187
    6 H                |   2 C                |     2.06333  |     1.09187
    7 H                |   3 C                |     2.07526  |     1.09818
    8 H                |   3 C                |     2.08473  |     1.10319
    9 H                |   3 C                |     2.08472  |     1.10319
   10 H                |   4 C                |     2.07526  |     1.09818
   11 H                |   4 C                |     2.08473  |     1.10319
   12 H                |   4 C                |     2.08473  |     1.10319
 ------------------------------------------------------------------------------
                         number of included internuclear distances:         11
 ==============================================================================



 ==============================================================================
                                 internuclear angles
 ------------------------------------------------------------------------------
        center 1       |       center 2       |       center 3       |  degrees
 ------------------------------------------------------------------------------
    2 C                |   1 C                |   3 C                |   122.23
    2 C                |   1 C                |   4 C                |   122.24
    3 C                |   1 C                |   4 C                |   115.53
    1 C                |   2 C                |   5 H                |   121.67
    1 C                |   2 C                |   6 H                |   121.68
    5 H                |   2 C                |   6 H                |   116.65
    1 C                |   3 C                |   7 H                |   111.74
    1 C                |   3 C                |   8 H                |   110.95
    1 C                |   3 C                |   9 H                |   110.96
    7 H                |   3 C                |   8 H                |   108.21
    7 H                |   3 C                |   9 H                |   108.22
    8 H                |   3 C                |   9 H                |   106.57
    1 C                |   4 C                |  10 H                |   111.74
    1 C                |   4 C                |  11 H                |   110.95
    1 C                |   4 C                |  12 H                |   110.95
   10 H                |   4 C                |  11 H                |   108.21
   10 H                |   4 C                |  12 H                |   108.22
   11 H                |   4 C                |  12 H                |   106.57
 ------------------------------------------------------------------------------
                            number of included internuclear angles:         18
 ==============================================================================



                              Aldehyde and Ketone set
                              -----------------------
 
                                 NWChem DFT Module
                                 -----------------
 
 
                              Aldehyde and Ketone set
 
 
                      Basis "ao basis" -> "ao basis" (spherical)
                      -----
  C (Carbon)
  ----------
            Exponent  Coefficients 
       -------------- ---------------------------------------------------------
  1 S  8.50603840E+03  0.000534
  1 S  1.27573290E+03  0.004125
  1 S  2.90311870E+02  0.021171
  1 S  8.20562000E+01  0.082418
  1 S  2.64796410E+01  0.240129
 
  2 S  9.24145850E+00  1.000000
 
  3 S  3.36435300E+00  1.000000
 
  4 S  8.71741640E-01  1.000000
 
  5 S  3.63523520E-01  1.000000
 
  6 S  1.28731350E-01  1.000000
 
  7 P  3.47094960E+01  0.005330
  7 P  7.95908830E+00  0.035866
  7 P  2.37869720E+00  0.142003
  7 P  8.15400650E-01  0.342031
 
  8 P  2.89537850E-01  1.000000
 
  9 P  1.00847540E-01  1.000000
 
  H (Hydrogen)
  ------------
            Exponent  Coefficients 
       -------------- ---------------------------------------------------------
  1 S  3.40613410E+01  0.006025
  1 S  5.12357460E+00  0.045021
  1 S  1.16466260E+00  0.201897
 
  2 S  3.27230410E-01  1.000000
 
  3 S  1.03072410E-01  1.000000
 


 Summary of "ao basis" -> "ao basis" (spherical)
 ------------------------------------------------------------------------------
       Tag                 Description            Shells   Functions and Types
 ---------------- ------------------------------  ------  ---------------------
 C                        ahlrichs vtz               9       15   6s3p
 H                        ahlrichs vtz               3        3   3s




 Summary of "ao basis" -> "ao basis" (spherical)
 ------------------------------------------------------------------------------
       Tag                 Description            Shells   Functions and Types
 ---------------- ------------------------------  ------  ---------------------
 C                        ahlrichs vtz               9       15   6s3p
 H                        ahlrichs vtz               3        3   3s


  Caching 1-el integrals 
 
            General Information
            -------------------
          SCF calculation type: DFT
          Wavefunction type:  spin polarized.
          No. of atoms     :    12
          No. of electrons :    33
           Alpha electrons :    17
            Beta electrons :    16
          Charge           :    -1
          Spin multiplicity:     2
          Use of symmetry is: off; symmetry adaption is: off
          Maximum number of iterations: 999
          This is a Direct SCF calculation.
          AO basis - number of functions:    84
                     number of shells:    60
          Convergence on energy requested:  1.00D-08
          Convergence on density requested:  1.00D-07
          Convergence on gradient requested:  1.00D-06
 
              XC Information
              --------------
                        PBE96 Method XC Functional
          PerdewBurkeErnzerhof Exchange Functional  1.000          
            Perdew 1991 LDA Correlation Functional  1.000 local    
           PerdewBurkeErnz. Correlation Functional  1.000 non-local
 
             Grid Information
             ----------------
          Grid used for XC integration:  fine      
          Radial quadrature: Mura-Knowles        
          Angular quadrature: Lebedev. 
          Tag              B.-S. Rad. Rad. Pts. Rad. Cut. Ang. Pts.
          ---              ---------- --------- --------- ---------
          C                   0.70       70          11.0       590
          H                   0.35       60          12.0       590
          Grid pruning is: on 
          Number of quadrature shells:   760
          Spatial weights used:  Erf1
 
          Convergence Information
          -----------------------
          Convergence aids based upon iterative change in 
          total energy or number of iterations. 
          Levelshifting, if invoked, occurs when the 
          HOMO/LUMO gap drops below (HL_TOL):  1.00D-02
          DIIS, if invoked, will attempt to extrapolate 
          using up to (NFOCK): 10 stored Fock matrices.

                    Damping( 0%)  Levelshifting(0.5)       DIIS
                  --------------- ------------------- ---------------
          dE  on:    start            ASAP                start   
          dE off:    2 iters        999 iters           999 iters 

 
      Screening Tolerance Information
      -------------------------------
          Density screening/tol_rho:  1.00D-12
          AO Gaussian exp screening on grid/accAOfunc:  18
          CD Gaussian exp screening on grid/accCDfunc:  20
          XC Gaussian exp screening on grid/accXCfunc:  20
          Schwarz screening/accCoul:  1.00D-12

      Dispersion Parameters
      ---------------------

           DFT-D3BJ Model   
          s6 scale factor  :        1.000000000000
          s8 scale factor  :        0.787500000000
          a1 parameter     :        0.428900000000
          a2 parameter     :        4.440700000000
              vdW contrib  :       -0.007877691592


 Forcing the number of linearly dependent vectors to be  0
 
      Superposition of Atomic Density Guess
      -------------------------------------
 
 Sum of atomic energies:        -154.68305411
   Time after variat. SCF:      0.2
   Time prior to 1st pass:      0.2

 Grid_pts file          = ./20_Me2CCHMe.gridpts.00
 Record size in doubles =  12289        No. of grid_pts per rec  =   3070
 Max. records in memory =     12        Max. recs in file   =  67550051

 Grid integrated density:      31.999996381157
 Requested integration accuracy:   0.10E-06

           Memory utilization after 1st SCF pass: 
           Heap Space remaining (MW):        0.00                 218
          Stack Space remaining (MW):      288.36           288357196

   convergence    iter        energy       DeltaE   RMS-Dens  Diis-err    time
 ---------------- ----- ----------------- --------- --------- ---------  ------
 d= 0,ls=0.0,diis     1   -157.3929927633 -2.76D+02  1.86D-02  1.18D+01     0.4
                                                     1.53D-02  1.05D+01
 d= 0,ls=0.0,diis     2   -156.4967614522  8.96D-01  1.76D-01  7.42D-01     0.6
                                                     1.73D-01  6.68D-01
 d= 0,ls=0.5,diis     3   -154.8605802154  1.64D+00  2.98D-02  2.86D+00     0.9
                                                     2.82D-02  2.49D+00
 d= 0,ls=0.5,diis     4   -156.0418559543 -1.18D+00  1.85D-02  9.47D-01     1.1
                                                     1.78D-02  8.08D-01
 d= 0,ls=0.5,diis     5   -156.4655253979 -4.24D-01  1.24D-02  2.91D-01     1.4
                                                     1.19D-02  2.53D-01
 d= 0,ls=0.5,diis     6   -156.6104644660 -1.45D-01  9.46D-03  8.36D-02     1.6
                                                     8.89D-03  7.20D-02
 d= 0,ls=0.5,diis     7   -156.6608568358 -5.04D-02  8.12D-03  1.87D-02     1.9
                                                     7.53D-03  1.72D-02
 Grid integrated density:      32.999996394952
 Requested integration accuracy:   0.10E-06
 d= 0,ls=0.5,diis     8   -156.6763449793 -1.55D-02  6.32D-03  4.14D-03     2.1
                                                     5.74D-03  4.34D-03
 Grid integrated density:      32.999995995438
 Requested integration accuracy:   0.10E-06
 d= 0,ls=0.5,diis     9   -156.6812191418 -4.87D-03  5.15D-03  1.41D-03     2.3
                                                     4.62D-03  1.62D-03
 Grid integrated density:      32.999995729959
 Requested integration accuracy:   0.10E-06
 d= 0,ls=0.5,diis    10   -156.6831824325 -1.96D-03  4.35D-03  9.79D-04     2.6
                                                     3.91D-03  1.13D-03
 Grid integrated density:      32.999995515676
 Requested integration accuracy:   0.10E-06
 d= 0,ls=0.5,diis    11   -156.6845758509 -1.39D-03  3.51D-03  6.05D-04     2.8
                                                     3.14D-03  6.92D-04
 Grid integrated density:      32.999995428464
 Requested integration accuracy:   0.10E-06
 d= 0,ls=0.5,diis    12   -156.6853427837 -7.67D-04  3.05D-03  5.34D-04     3.1
                                                     2.80D-03  6.11D-04
 Grid integrated density:      32.999995335825
 Requested integration accuracy:   0.10E-06
 d= 0,ls=0.5,diis    13   -156.6862003497 -8.58D-04  2.65D-03  3.76D-04     3.3
                                                     2.79D-03  5.60D-04
 Grid integrated density:      32.999995267126
 Requested integration accuracy:   0.10E-06
 d= 0,ls=0.5,diis    14   -156.6876182096 -1.42D-03  2.29D-03  2.73D-04     3.6
                                                     3.82D-03  9.37D-04
 Grid integrated density:      32.999995213797
 Requested integration accuracy:   0.10E-06
 d= 0,ls=0.5,diis    15   -156.6917008747 -4.08D-03  2.01D-03  2.04D-04     3.9
                                                     8.15D-03  2.68D-03
 Grid integrated density:      32.999995199905
 Requested integration accuracy:   0.10E-06
 d= 0,ls=0.5,diis    16   -156.7049764962 -1.33D-02  1.77D-03  4.23D-04     4.1
                                                     1.87D-02  8.41D-03
 Grid integrated density:      32.999995282542
 Requested integration accuracy:   0.10E-06
 d= 0,ls=0.5,diis    17   -156.7392983766 -3.43D-02  1.48D-03  2.84D-03     4.4
                                                     2.96D-02  2.02D-02
 Grid integrated density:      32.999995479313
 Requested integration accuracy:   0.10E-06
 d= 0,ls=0.5,diis    18   -156.7923393117 -5.30D-02  1.43D-03  1.12D-02     4.7
                                                     2.87D-02  3.01D-02
 Grid integrated density:      32.999995660202
 Requested integration accuracy:   0.10E-06
 d= 0,ls=0.5,diis    19   -156.8379310020 -4.56D-02  1.26D-03  2.69D-02     4.9
                                                     1.92D-02  3.51D-02
 Grid integrated density:      32.999995786629
 Requested integration accuracy:   0.10E-06
 d= 0,ls=0.5,diis    20   -156.8652314708 -2.73D-02  1.16D-03  4.01D-02     5.2
                                                     1.08D-02  3.81D-02
 Grid integrated density:      32.999995854007
 Requested integration accuracy:   0.10E-06
 d= 0,ls=0.5,diis    21   -156.8793175698 -1.41D-02  1.27D-03  4.75D-02     5.4
                                                     5.76D-03  3.97D-02
 Grid integrated density:      32.999995876022
 Requested integration accuracy:   0.10E-06
 d= 0,ls=0.5,diis    22   -156.8848471988 -5.53D-03  1.12D-03  5.32D-02     5.7
                                                     3.14D-03  4.19D-02
 Grid integrated density:      32.999995896106
 Requested integration accuracy:   0.10E-06
 d= 0,ls=0.5,diis    23   -156.8880637784 -3.22D-03  1.14D-03  5.45D-02     5.9
                                                     1.81D-03  4.20D-02
 Grid integrated density:      32.999995910752
 Requested integration accuracy:   0.10E-06
 d= 0,ls=0.5,diis    24   -156.8910530830 -2.99D-03  1.14D-03  5.21D-02     6.2
                                                     1.10D-03  3.96D-02
 Grid integrated density:      32.999995926061
 Requested integration accuracy:   0.10E-06
 d= 0,ls=0.5,diis    25   -156.8924787463 -1.43D-03  1.06D-03  5.08D-02     6.4
                                                     7.08D-04  3.84D-02
 Grid integrated density:      32.999995960201
 Requested integration accuracy:   0.10E-06
 d= 0,ls=0.5,diis    26   -156.8958576817 -3.38D-03  7.62D-04  4.55D-02     6.7
                                                     4.58D-04  3.42D-02
 Grid integrated density:      32.999996011030
 Requested integration accuracy:   0.10E-06
 d= 0,ls=0.5,diis    27   -156.8980731286 -2.22D-03  4.34D-03  4.21D-02     7.0
                                                     8.48D-04  3.18D-02
 Grid integrated density:      32.999996070693
 Requested integration accuracy:   0.10E-06
 d= 0,ls=0.5,diis    28   -156.9148065125 -1.67D-02  3.72D-03  1.36D-02     7.3
                                                     5.71D-04  9.81D-03
 Grid integrated density:      32.999996158730
 Requested integration accuracy:   0.10E-06
 d= 0,ls=0.5,diis    29   -156.9212234944 -6.42D-03  2.97D-03  3.69D-03     7.5
                                                     2.93D-04  2.41D-03
 Grid integrated density:      32.999996217279
 Requested integration accuracy:   0.10E-06
 d= 0,ls=0.5,diis    30   -156.9231534289 -1.93D-03  2.61D-03  1.11D-03     7.8
                                                     2.00D-04  5.95D-04
 Grid integrated density:      32.999996306078
 Requested integration accuracy:   0.10E-06
 d= 0,ls=0.5,diis    31   -156.9238393149 -6.86D-04  2.31D-03  3.81D-04     8.0
                                                     1.32D-04  1.46D-04
 Grid integrated density:      32.999996395279
 Requested integration accuracy:   0.10E-06
 d= 0,ls=0.5,diis    32   -156.9241294750 -2.90D-04  2.08D-03  1.75D-04     8.3
                                                     9.23D-05  4.40D-05
 Grid integrated density:      32.999996477295
 Requested integration accuracy:   0.10E-06
 d= 0,ls=0.5,diis    33   -156.9242906717 -1.61D-04  1.83D-03  1.11D-04     8.5
                                                     6.81D-05  2.52D-05
 Grid integrated density:      32.999996547526
 Requested integration accuracy:   0.10E-06
 d= 0,ls=0.5,diis    34   -156.9243995979 -1.09D-04  1.65D-03  7.62D-05     8.8
                                                     5.32D-05  1.64D-05
 Grid integrated density:      32.999996605987
 Requested integration accuracy:   0.10E-06
 d= 0,ls=0.5,diis    35   -156.9244790683 -7.95D-05  1.49D-03  5.52D-05     9.0
                                                     4.32D-05  1.21D-05
 Grid integrated density:      32.999996653386
 Requested integration accuracy:   0.10E-06
 d= 0,ls=0.5,diis    36   -156.9245388717 -5.98D-05  1.35D-03  4.10D-05     9.3
                                                     3.80D-05  9.16D-06
 Grid integrated density:      32.999996691800
 Requested integration accuracy:   0.10E-06
 d= 0,ls=0.5,diis    37   -156.9245845707 -4.57D-05  1.19D-03  3.11D-05     9.6
                                                     2.80D-05  6.31D-06
 d= 0,ls=0.5,diis    38   -156.9246189935 -3.44D-05  1.08D-03  2.44D-05     9.8
                                                     3.21D-05  5.58D-06
 d= 0,ls=0.5,diis    39   -156.9246442250 -2.52D-05  9.39D-04  2.14D-05    10.1
                                                     1.93D-05  5.46D-06
 d= 0,ls=0.5,diis    40   -156.9246649652 -2.07D-05  8.31D-04  1.75D-05    10.3
                                                     1.63D-05  4.72D-06
 d= 0,ls=0.5,diis    41   -156.9246814385 -1.65D-05  7.63D-04  1.41D-05    10.6
                                                     1.87D-05  4.23D-06
 d= 0,ls=0.5,diis    42   -156.9246936597 -1.22D-05  6.79D-04  1.30D-05    10.8
                                                     1.29D-05  4.68D-06
 d= 0,ls=0.5,diis    43   -156.9247039970 -1.03D-05  6.04D-04  1.14D-05    11.1
                                                     7.33D-06  4.56D-06
 d= 0,ls=0.5,diis    44   -156.9247130561 -9.06D-06  5.49D-04  9.36D-06    11.3
                                                     1.00D-05  3.84D-06
 d= 0,ls=0.5,diis    45   -156.9247197330 -6.68D-06  4.88D-04  8.62D-06    11.6
                                                     9.19D-06  3.98D-06
 d= 0,ls=0.5,diis    46   -156.9247249866 -5.25D-06  4.43D-04  8.04D-06    11.8
                                                     6.43D-06  3.98D-06
 d= 0,ls=0.5,diis    47   -156.9247299327 -4.95D-06  3.92D-04  6.88D-06    12.1
                                                     3.52D-06  3.41D-06
 d= 0,ls=0.5,diis    48   -156.9247341876 -4.25D-06  3.56D-04  5.77D-06    12.4
                                                     2.84D-06  2.91D-06
 d= 0,ls=0.5,diis    49   -156.9247377074 -3.52D-06  3.21D-04  4.79D-06    12.6
                                                     3.72D-06  2.38D-06
 d= 0,ls=0.5,diis    50   -156.9247407076 -3.00D-06  2.84D-04  3.90D-06    12.9
                                                     1.79D-06  1.89D-06
 d= 0,ls=0.5,diis    51   -156.9247432293 -2.52D-06  2.56D-04  3.07D-06    13.1
                                                     3.91D-06  1.46D-06
 d= 0,ls=0.5,diis    52   -156.9247449693 -1.74D-06  2.32D-04  2.76D-06    13.4
                                                     2.12D-06  1.35D-06
 d= 0,ls=0.5,diis    53   -156.9247465246 -1.56D-06  2.14D-04  2.41D-06    13.6
                                                     1.66D-06  1.19D-06
 d= 0,ls=0.5,diis    54   -156.9247478862 -1.36D-06  1.99D-04  2.06D-06    13.9
                                                     3.25D-06  1.03D-06
 d= 0,ls=0.5,diis    55   -156.9247489162 -1.03D-06  1.79D-04  1.90D-06    14.1
                                                     1.88D-06  9.76D-07
 d= 0,ls=0.5,diis    56   -156.9247498654 -9.49D-07  1.69D-04  1.69D-06    14.4
                                                     3.05D-06  8.79D-07
 d= 0,ls=0.5,diis    57   -156.9247506031 -7.38D-07  1.50D-04  1.63D-06    14.6
                                                     1.39D-06  8.80D-07
 d= 0,ls=0.5,diis    58   -156.9247513439 -7.41D-07  1.41D-04  1.45D-06    14.9
                                                     2.14D-06  7.92D-07
 d= 0,ls=0.5,diis    59   -156.9247519817 -6.38D-07  1.27D-04  1.32D-06    15.1
                                                     2.16D-06  7.25D-07
 d= 0,ls=0.5,diis    60   -156.9247526409 -6.59D-07  1.17D-04  1.12D-06    15.4
                                                     1.39D-06  6.16D-07
 d= 0,ls=0.5,diis    61   -156.9247532273 -5.86D-07  1.01D-04  9.49D-07    15.6
                                                     1.24D-06  5.16D-07
 d= 0,ls=0.5,diis    62   -156.9247537871 -5.60D-07  9.40D-05  7.64D-07    15.9
                                                     1.12D-06  3.94D-07
 d= 0,ls=0.5,diis    63   -156.9247542795 -4.92D-07  8.82D-05  6.22D-07    16.1
                                                     8.58D-07  3.06D-07
 d= 0,ls=0.5,diis    64   -156.9247547181 -4.39D-07  8.21D-05  5.17D-07    16.4
                                                     7.13D-07  2.41D-07
 d= 0,ls=0.5,diis    65   -156.9247551154 -3.97D-07  7.71D-05  4.35D-07    16.6
                                                     4.92D-07  1.86D-07
 d= 0,ls=0.5,diis    66   -156.9247554944 -3.79D-07  7.29D-05  3.70D-07    16.9
                                                     8.08D-07  1.47D-07
 d= 0,ls=0.5,diis    67   -156.9247558423 -3.48D-07  6.35D-05  3.35D-07    17.1
                                                     1.75D-06  1.26D-07
 d= 0,ls=0.5,diis    68   -156.9247562220 -3.80D-07  6.22D-05  2.55D-07    17.4
                                                     8.04D-07  6.84D-08
 d= 0,ls=0.5,diis    69   -156.9247565653 -3.43D-07  6.04D-05  2.16D-07    17.6
                                                     4.63D-07  4.16D-08
 d= 0,ls=0.5,diis    70   -156.9247568972 -3.32D-07  5.85D-05  1.93D-07    17.9
                                                     2.94D-07  2.41D-08
 d= 0,ls=0.5,diis    71   -156.9247572253 -3.28D-07  5.51D-05  1.82D-07    18.1
                                                     8.17D-07  1.56D-08
 d= 0,ls=0.5,diis    72   -156.9247575461 -3.21D-07  5.46D-05  1.82D-07    18.4
                                                     4.82D-07  1.73D-08
 d= 0,ls=0.5,diis    73   -156.9247578694 -3.23D-07  5.39D-05  1.90D-07    18.7
                                                     4.42D-07  2.51D-08
 d= 0,ls=0.5,diis    74   -156.9247582037 -3.34D-07  5.46D-05  2.03D-07    18.9
                                                     1.37D-06  3.53D-08
 d= 0,ls=0.5,diis    75   -156.9247585652 -3.61D-07  5.23D-05  2.08D-07    19.2
                                                     6.51D-07  3.50D-08
 d= 0,ls=0.5,diis    76   -156.9247589196 -3.54D-07  5.22D-05  2.31D-07    19.4
                                                     5.30D-07  5.47D-08
 d= 0,ls=0.5,diis    77   -156.9247592851 -3.65D-07  5.21D-05  2.57D-07    19.7
                                                     2.81D-07  7.79D-08
 d= 0,ls=0.5,diis    78   -156.9247596672 -3.82D-07  5.45D-05  2.85D-07    20.0
                                                     1.04D-06  1.02D-07
 d= 0,ls=0.5,diis    79   -156.9247600887 -4.22D-07  5.40D-05  2.95D-07    20.2
                                                     8.24D-07  1.07D-07
 d= 0,ls=0.5,diis    80   -156.9247605245 -4.36D-07  5.38D-05  3.16D-07    20.5
                                                     7.41D-07  1.24D-07
 d= 0,ls=0.5,diis    81   -156.9247609766 -4.52D-07  5.46D-05  3.45D-07    20.7
                                                     4.14D-07  1.46D-07
 d= 0,ls=0.5,diis    82   -156.9247614511 -4.75D-07  5.35D-05  3.77D-07    21.0
                                                     7.82D-07  1.70D-07
 d= 0,ls=0.5,diis    83   -156.9247619204 -4.69D-07  5.22D-05  4.31D-07    21.2
                                                     1.41D-06  2.23D-07
 d= 0,ls=0.5,diis    84   -156.9247623803 -4.60D-07  5.46D-05  5.10D-07    21.5
                                                     7.50D-07  3.14D-07
 d= 0,ls=0.5,diis    85   -156.9247628843 -5.04D-07  5.68D-05  5.74D-07    21.8
                                                     3.14D-07  3.78D-07
 d= 0,ls=0.5,diis    86   -156.9247634410 -5.57D-07  5.77D-05  6.22D-07    22.0
                                                     5.88D-07  4.21D-07
 d= 0,ls=0.5,diis    87   -156.9247640232 -5.82D-07  5.94D-05  6.73D-07    22.3
                                                     5.68D-07  4.75D-07
 d= 0,ls=0.5,diis    88   -156.9247646360 -6.13D-07  6.08D-05  7.31D-07    22.5
                                                     5.36D-07  5.34D-07
 d= 0,ls=0.5,diis    89   -156.9247652860 -6.50D-07  6.15D-05  7.93D-07    22.8
                                                     8.36D-07  5.94D-07
 d= 0,ls=0.5,diis    90   -156.9247659482 -6.62D-07  6.15D-05  8.81D-07    23.0
                                                     1.07D-06  6.88D-07
 d= 0,ls=0.5,diis    91   -156.9247666033 -6.55D-07  6.67D-05  1.00D-06    23.3
                                                     7.72D-07  8.24D-07
 d= 0,ls=0.5,diis    92   -156.9247673912 -7.88D-07  6.62D-05  1.05D-06    23.5
                                                     9.53D-07  8.60D-07
 d= 0,ls=0.5,diis    93   -156.9247681523 -7.61D-07  6.82D-05  1.15D-06    23.8
                                                     5.04D-07  9.77D-07
 d= 0,ls=0.5,diis    94   -156.9247689739 -8.22D-07  6.95D-05  1.24D-06    24.0
                                                     5.32D-07  1.07D-06
 d= 0,ls=0.5,diis    95   -156.9247698266 -8.53D-07  7.81D-05  1.35D-06    24.3
                                                     4.48D-06  1.19D-06
 d= 0,ls=0.5,diis    96   -156.9247709651 -1.14D-06  7.44D-05  1.29D-06    24.5
                                                     1.09D-06  1.07D-06
 d= 0,ls=0.5,diis    97   -156.9247719312 -9.66D-07  7.84D-05  1.43D-06    24.8
                                                     7.88D-07  1.22D-06
 d= 0,ls=0.5,diis    98   -156.9247730436 -1.11D-06  7.20D-05  1.49D-06    25.0
                                                     3.21D-06  1.26D-06
 d= 0,ls=0.5,diis    99   -156.9247738913 -8.48D-07  7.39D-05  1.79D-06    25.3
                                                     2.30D-06  1.66D-06
 d= 0,ls=0.5,diis   100   -156.9247748038 -9.12D-07  7.70D-05  2.07D-06    25.5
                                                     1.47D-06  2.03D-06
 d= 0,ls=0.5,diis   101   -156.9247758586 -1.05D-06  7.78D-05  2.29D-06    25.8
                                                     1.69D-06  2.29D-06
 d= 0,ls=0.5,diis   102   -156.9247769020 -1.04D-06  8.15D-05  2.56D-06    26.0
                                                     9.81D-07  2.63D-06
 d= 0,ls=0.5,diis   103   -156.9247780915 -1.19D-06  9.24D-05  2.78D-06    26.3
                                                     2.53D-06  2.88D-06
 d= 0,ls=0.5,diis   104   -156.9247797276 -1.64D-06  1.01D-04  2.75D-06    26.5
                                                     4.01D-06  2.76D-06
 d= 0,ls=0.5,diis   105   -156.9247815844 -1.86D-06  9.88D-05  2.68D-06    26.7
                                                     1.86D-06  2.53D-06
 d= 0,ls=0.5,diis   106   -156.9247833362 -1.75D-06  9.71D-05  2.75D-06    27.0
                                                     8.84D-07  2.56D-06
 d= 0,ls=0.5,diis   107   -156.9247849950 -1.66D-06  1.01D-04  2.97D-06    27.2
                                                     1.26D-06  2.80D-06
 d= 0,ls=0.5,diis   108   -156.9247868237 -1.83D-06  1.01D-04  3.13D-06    27.5
                                                     9.57D-07  2.94D-06
 d= 0,ls=0.5,diis   109   -156.9247885789 -1.76D-06  1.04D-04  3.45D-06    27.7
                                                     4.84D-07  3.28D-06
 d= 0,ls=0.5,diis   110   -156.9247904745 -1.90D-06  1.01D-04  3.73D-06    28.0
                                                     3.28D-06  3.57D-06
 d= 0,ls=0.5,diis   111   -156.9247920832 -1.61D-06  1.04D-04  4.38D-06    28.2
                                                     2.03D-06  4.42D-06
 d= 0,ls=0.5,diis   112   -156.9247938929 -1.81D-06  1.08D-04  4.89D-06    28.5
                                                     1.57D-06  5.04D-06
 d= 0,ls=0.5,diis   113   -156.9247958735 -1.98D-06  1.20D-04  5.38D-06    28.8
                                                     2.55D-06  5.61D-06
 d= 0,ls=0.5,diis   114   -156.9247986008 -2.73D-06  1.20D-04  5.39D-06    29.0
                                                     1.63D-06  5.50D-06
 d= 0,ls=0.5,diis   115   -156.9248011933 -2.59D-06  1.25D-04  5.67D-06    29.3
                                                     1.12D-06  5.76D-06
 d= 0,ls=0.5,diis   116   -156.9248039958 -2.80D-06  1.17D-04  5.87D-06    29.5
                                                     3.58D-06  5.94D-06
 d= 0,ls=0.5,diis   117   -156.9248060574 -2.06D-06  1.25D-04  6.83D-06    29.7
                                                     1.25D-06  7.20D-06
 d= 0,ls=0.5,diis   118   -156.9248087282 -2.67D-06  1.34D-04  7.36D-06    30.0
                                                     2.53D-06  7.83D-06
 d= 0,ls=0.5,diis   119   -156.9248120788 -3.35D-06  1.26D-04  7.53D-06    30.2
                                                     4.01D-06  7.89D-06
 d= 0,ls=0.5,diis   120   -156.9248146015 -2.52D-06  1.33D-04  8.60D-06    30.5
                                                     2.18D-06  9.36D-06
 d= 0,ls=0.5,diis   121   -156.9248177229 -3.12D-06  1.48D-04  9.13D-06    30.8
                                                     3.54D-06  1.00D-05
 d= 0,ls=0.5,diis   122   -156.9248219303 -4.21D-06  1.46D-04  9.10D-06    31.0
                                                     1.42D-06  9.73D-06
 d= 0,ls=0.5,diis   123   -156.9248255801 -3.65D-06  1.54D-04  9.73D-06    31.3
                                                     2.16D-06  1.04D-05
 d= 0,ls=0.5,diis   124   -156.9248298404 -4.26D-06  1.83D-04  1.00D-05    31.5
                                                     1.07D-05  1.07D-05
 d= 0,ls=0.5,diis   125   -156.9248362790 -6.44D-06  1.75D-04  8.98D-06    31.8
                                                     4.79D-06  9.16D-06
 d= 0,ls=0.5,diis   126   -156.9248416870 -5.41D-06  1.68D-04  9.02D-06    32.0
                                                     2.95D-06  8.98D-06
 d= 0,ls=0.5,diis   127   -156.9248461460 -4.46D-06  1.87D-04  1.00D-05    32.3
                                                     8.29D-06  1.03D-05
 d= 0,ls=0.5,diis   128   -156.9248526547 -6.51D-06  1.74D-04  9.71D-06    32.5
                                                     4.53D-06  9.40D-06
 d= 0,ls=0.5,diis   129   -156.9248578221 -5.17D-06  1.70D-04  1.04D-05    32.8
                                                     5.96D-06  1.04D-05
 d= 0,ls=0.5,diis   130   -156.9248623616 -4.54D-06  2.22D-04  1.16D-05    33.1
                                                     1.75D-05  1.20D-05
 d= 0,ls=0.5,diis   131   -156.9248722989 -9.94D-06  2.08D-04  9.14D-06    33.3
                                                     7.52D-06  8.31D-06
 d= 0,ls=0.5,diis   132   -156.9248800951 -7.80D-06  2.52D-04  9.04D-06    33.6
                                                     2.15D-05  7.78D-06
 d= 0,ls=0.5,diis   133   -156.9248912833 -1.12D-05  2.29D-04  6.56D-06    33.9
                                                     8.94D-06  3.88D-06
 d= 0,ls=0.5,diis   134   -156.9248997458 -8.46D-06  2.33D-04  6.76D-06    34.1
                                                     5.67D-06  3.87D-06
 d= 0,ls=0.5,diis   135   -156.9249083482 -8.60D-06  2.19D-04  7.36D-06    34.4
                                                     5.45D-06  4.31D-06
 d= 0,ls=0.5,diis   136   -156.9249159008 -7.55D-06  2.22D-04  9.18D-06    34.6
                                                     6.47D-06  6.59D-06
 d= 0,ls=0.5,diis   137   -156.9249232083 -7.31D-06  2.51D-04  1.17D-05    34.9
                                                     6.90D-06  9.72D-06
 d= 0,ls=0.5,diis   138   -156.9249333152 -1.01D-05  2.50D-04  1.22D-05    35.1
                                                     2.32D-06  9.96D-06
 d= 0,ls=0.5,diis   139   -156.9249431746 -9.86D-06  2.69D-04  1.34D-05    35.4
                                                     7.92D-06  1.11D-05
 d= 0,ls=0.5,diis   140   -156.9249548645 -1.17D-05  2.81D-04  1.39D-05    35.6
                                                     7.27D-06  1.12D-05
 d= 0,ls=0.5,diis   141   -156.9249671262 -1.23D-05  2.85D-04  1.43D-05    35.9
                                                     5.39D-06  1.13D-05
 d= 0,ls=0.5,diis   142   -156.9249799977 -1.29D-05  3.02D-04  1.46D-05    36.2
                                                     6.42D-06  1.12D-05
 d= 0,ls=0.5,diis   143   -156.9249936712 -1.37D-05  3.04D-04  1.51D-05    36.4
                                                     4.14D-06  1.13D-05
 d= 0,ls=0.5,diis   144   -156.9250075059 -1.38D-05  2.97D-04  1.63D-05    36.7
                                                     5.99D-06  1.24D-05
 d= 0,ls=0.5,diis   145   -156.9250196688 -1.22D-05  2.96D-04  2.00D-05    36.9
                                                     8.31D-06  1.69D-05
 d= 0,ls=0.5,diis   146   -156.9250312209 -1.16D-05  3.03D-04  2.47D-05    37.1
                                                     1.03D-05  2.28D-05
 d= 0,ls=0.5,diis   147   -156.9250417511 -1.05D-05  3.11D-04  3.13D-05    37.4
                                                     7.99D-06  3.12D-05
 d= 0,ls=0.5,diis   148   -156.9250534064 -1.17D-05  3.23D-04  3.75D-05    37.7
                                                     6.05D-06  3.90D-05
 d= 0,ls=0.5,diis   149   -156.9250663549 -1.29D-05  3.38D-04  4.34D-05    37.9
                                                     3.58D-06  4.66D-05
 d= 0,ls=0.5,diis   150   -156.9250806690 -1.43D-05  3.46D-04  4.88D-05    38.2
                                                     7.76D-06  5.32D-05
 d= 0,ls=0.5,diis   151   -156.9250938143 -1.31D-05  3.58D-04  5.71D-05    38.5
                                                     4.03D-06  6.35D-05
 d= 0,ls=0.5,diis   152   -156.9251089292 -1.51D-05  3.80D-04  6.41D-05    38.7
                                                     7.96D-06  7.19D-05
 d= 0,ls=0.5,diis   153   -156.9251277824 -1.89D-05  4.30D-04  6.87D-05    38.9
                                                     2.16D-05  7.68D-05
 d= 0,ls=0.5,diis   154   -156.9251602989 -3.25D-05  4.31D-04  5.91D-05    39.2
                                                     1.40D-05  6.29D-05
 d= 0,ls=0.5,diis   155   -156.9251882005 -2.79D-05  4.42D-04  5.70D-05    39.4
                                                     1.42D-05  5.90D-05
 d= 0,ls=0.5,diis   156   -156.9252165859 -2.84D-05  4.51D-04  5.60D-05    39.7
                                                     9.34D-06  5.66D-05
 d= 0,ls=0.5,diis   157   -156.9252437479 -2.72D-05  4.45D-04  5.79D-05    39.9
                                                     7.08D-06  5.84D-05
 d= 0,ls=0.5,diis   158   -156.9252634216 -1.97D-05  4.51D-04  7.07D-05    40.2
                                                     1.74D-05  7.37D-05
 d= 0,ls=0.5,diis   159   -156.9252763467 -1.29D-05  4.59D-04  9.11D-05    40.4
                                                     1.24D-05  9.91D-05
 d= 0,ls=0.5,diis   160   -156.9252916435 -1.53D-05  4.75D-04  1.10D-04    40.7
                                                     7.13D-06  1.23D-04
 d= 0,ls=0.5,diis   161   -156.9253145364 -2.29D-05  5.11D-04  1.20D-04    40.9
                                                     1.70D-05  1.37D-04
 d= 0,ls=0.5,diis   162   -156.9253494613 -3.49D-05  5.23D-04  1.22D-04    41.2
                                                     5.76D-06  1.36D-04
 d= 0,ls=0.5,diis   163   -156.9253771097 -2.76D-05  5.33D-04  1.33D-04    41.4
                                                     5.14D-06  1.50D-04
 d= 0,ls=0.5,diis   164   -156.9253988098 -2.17D-05  5.63D-04  1.53D-04    41.6
                                                     6.73D-06  1.75D-04
 d= 0,ls=0.5,diis   165   -156.9254309646 -3.22D-05  5.82D-04  1.63D-04    41.9
                                                     8.78D-06  1.85D-04
 d= 0,ls=0.5,diis   166   -156.9254675232 -3.66D-05  6.32D-04  1.70D-04    42.1
                                                     2.80D-05  1.92D-04
 d= 0,ls=0.5,diis   167   -156.9255246475 -5.71D-05  6.30D-04  1.57D-04    42.4
                                                     7.68D-06  1.73D-04
 d= 0,ls=0.5,diis   168   -156.9255537845 -2.91D-05  6.41D-04  1.80D-04    42.6
                                                     6.74D-06  2.02D-04
 d= 0,ls=0.5,diis   169   -156.9255877986 -3.40D-05  6.64D-04  2.00D-04    42.9
                                                     5.39D-06  2.26D-04
 d= 0,ls=0.5,diis   170   -156.9256192975 -3.15D-05  6.87D-04  2.23D-04    43.1
                                                     1.23D-05  2.54D-04
 d= 0,ls=0.5,diis   171   -156.9256655230 -4.62D-05  7.01D-04  2.30D-04    43.3
                                                     1.49D-05  2.63D-04
 d= 0,ls=0.5,diis   172   -156.9257195644 -5.40D-05  7.13D-04  2.30D-04    43.6
                                                     4.81D-06  2.63D-04
 d= 0,ls=0.5,diis   173   -156.9257566604 -3.71D-05  7.37D-04  2.55D-04    43.9
                                                     1.35D-05  2.93D-04
 d= 0,ls=0.5,diis   174   -156.9257832597 -2.66D-05  7.56D-04  2.97D-04    44.1
                                                     8.84D-06  3.46D-04
 d= 0,ls=0.5,diis   175   -156.9258044848 -2.12D-05  7.83D-04  3.47D-04    44.4
                                                     1.39D-05  4.08D-04
 d= 0,ls=0.5,diis   176   -156.9258504896 -4.60D-05  8.08D-04  3.70D-04    44.7
                                                     1.85D-05  4.38D-04
 d= 0,ls=0.5,diis   177   -156.9258490594  1.43D-06  8.34D-04  4.59D-04    44.9
                                                     2.06D-05  5.46D-04
 d= 0,ls=0.5,diis   178   -156.9259160846 -6.70D-05  8.64D-04  4.57D-04    45.2
                                                     1.70D-05  5.42D-04
 d= 0,ls=0.5,diis   179   -156.9259790361 -6.30D-05  8.80D-04  4.64D-04    45.4
                                                     1.16D-05  5.48D-04
 d= 0,ls=0.5,diis   180   -156.9260237183 -4.47D-05  9.09D-04  5.01D-04    45.7
                                                     6.97D-06  5.95D-04
 d= 0,ls=0.5,diis   181   -156.9260655004 -4.18D-05  9.24D-04  5.42D-04    46.0
                                                     1.92D-05  6.44D-04
 d= 0,ls=0.5,diis   182   -156.9261373081 -7.18D-05  9.71D-04  5.42D-04    46.2
                                                     2.87D-05  6.42D-04
 d= 0,ls=0.5,diis   183   -156.9262057014 -6.84D-05  9.78D-04  5.58D-04    46.4
                                                     4.19D-05  6.60D-04
 d= 0,ls=0.5,diis   184   -156.9263234805 -1.18D-04  1.01D-03  5.05D-04    46.7
                                                     8.50D-05  5.97D-04
 d= 0,ls=0.5,diis   185   -156.9265162232 -1.93D-04  1.01D-03  3.54D-04    47.0
                                                     2.17D-05  4.14D-04
 d= 0,ls=0.5,diis   186   -156.9265463877 -3.02D-05  1.03D-03  4.28D-04    47.2
                                                     6.96D-05  5.06D-04
 d= 0,ls=0.5,diis   187   -156.9267090794 -1.63D-04  1.04D-03  3.16D-04    47.5
                                                     5.51D-05  3.65D-04
 d= 0,ls=0.5,diis   188   -156.9268344955 -1.25D-04  1.07D-03  2.60D-04    47.7
                                                     8.22D-05  2.95D-04
 d= 0,ls=0.5,diis   189   -156.9269883026 -1.54D-04  1.11D-03  1.68D-04    48.0
                                                     1.06D-04  1.78D-04
 d= 0,ls=0.5,diis   190   -156.9271405443 -1.52D-04  1.09D-03  8.19D-05    48.3
                                                     8.53D-05  6.56D-05
 d= 0,ls=0.5,diis   191   -156.9272512599 -1.11D-04  1.08D-03  4.96D-05    48.5
                                                     7.40D-05  2.06D-05
 d= 0,ls=0.5,diis   192   -156.9273431369 -9.19D-05  1.06D-03  3.97D-05    48.8
                                                     4.85D-05  3.63D-06
 d= 0,ls=0.5,diis   193   -156.9274246842 -8.15D-05  1.09D-03  3.90D-05    49.0
                                                     8.33D-05  1.04D-06
 d= 0,ls=0.5,diis   194   -156.9274975322 -7.28D-05  1.06D-03  5.43D-05    49.3
                                                     4.90D-05  1.10D-05
 d= 0,ls=0.5,diis   195   -156.9275696480 -7.21D-05  1.05D-03  6.27D-05    49.5
                                                     3.74D-05  1.83D-05
 d= 0,ls=0.5,diis   196   -156.9276429261 -7.33D-05  1.05D-03  6.70D-05    49.8
                                                     1.63D-05  2.22D-05
 d= 0,ls=0.5,diis   197   -156.9277258176 -8.29D-05  1.04D-03  5.28D-05    50.1
                                                     4.73D-05  9.33D-06
 d= 0,ls=0.5,diis   198   -156.9277902183 -6.44D-05  1.06D-03  7.09D-05    50.3
                                                     8.16D-05  2.68D-05
 d= 0,ls=0.5,diis   199   -156.9278260240 -3.58D-05  1.03D-03  1.31D-04    50.6
                                                     2.88D-05  8.83D-05
 d= 0,ls=0.5,diis   200   -156.9279023882 -7.64D-05  1.02D-03  1.19D-04    50.8
                                                     5.97D-05  7.57D-05
 d= 0,ls=0.5,diis   201   -156.9279411750 -3.88D-05  1.01D-03  1.67D-04    51.1
                                                     3.48D-05  1.26D-04
 d= 0,ls=0.5,diis   202   -156.9280019004 -6.07D-05  1.01D-03  1.75D-04    51.3
                                                     1.59D-05  1.34D-04
 d= 0,ls=0.5,diis   203   -156.9280857027 -8.38D-05  1.06D-03  1.45D-04    51.6
                                                     4.75D-05  1.02D-04
 d= 0,ls=0.5,diis   204   -156.9281987901 -1.13D-04  1.01D-03  6.87D-05    51.8
                                                     1.04D-04  2.58D-05
 d= 0,ls=0.5,diis   205   -156.9281988904 -1.00D-07  9.74D-04  1.74D-04    52.1
                                                     6.84D-05  1.34D-04
 d= 0,ls=0.5,diis   206   -156.9282092689 -1.04D-05  9.55D-04  2.51D-04    52.4
                                                     6.30D-05  2.17D-04
 d= 0,ls=0.5,diis   207   -156.9282165632 -7.29D-06  9.45D-04  3.27D-04    52.6
                                                     2.27D-05  2.99D-04
 d= 0,ls=0.5,diis   208   -156.9283090237 -9.25D-05  1.09D-03  2.66D-04    52.9
                                                     9.68D-05  2.31D-04
 d= 0,ls=0.5,diis   209   -156.9284798770 -1.71D-04  9.30D-04  8.52D-05    53.1
                                                     1.16D-04  4.42D-05
 d= 0,ls=0.5,diis   210   -156.9284474048  3.25D-05  9.00D-04  2.28D-04    53.4
                                                     9.71D-05  1.92D-04
 d= 0,ls=0.5,diis   211   -156.9283954959  5.19D-05  8.97D-04  3.86D-04    53.6
                                                     9.61D-05  3.60D-04
 d= 0,ls=0.5,diis   212   -156.9283082711  8.72D-05  8.48D-04  5.92D-04    53.8
                                                     6.32D-05  5.81D-04
 d= 0,ls=0.5,diis   213   -156.9282763108  3.20D-05  8.35D-04  7.02D-04    54.1
                                                     3.09D-05  6.98D-04
 d= 0,ls=0.5,diis   214   -156.9283928221 -1.17D-04  9.51D-04  5.81D-04    54.3
                                                     9.45D-05  5.64D-04
 d= 0,ls=0.5,diis   215   -156.9286266332 -2.34D-04  1.01D-03  2.86D-04    54.6
                                                     9.79D-05  2.48D-04
 d= 0,ls=0.5,diis   216   -156.9287928776 -1.66D-04  7.88D-04  1.03D-04    54.8
                                                     8.12D-05  6.41D-05
 d= 0,ls=0.5,diis   217   -156.9287798087  1.31D-05  7.72D-04  2.01D-04    55.1
                                                     6.38D-05  1.64D-04
 d= 0,ls=0.5,diis   218   -156.9287645619  1.52D-05  7.43D-04  2.89D-04    55.3
                                                     6.64D-05  2.58D-04
 d= 0,ls=0.5,diis   219   -156.9287316084  3.30D-05  7.69D-04  3.97D-04    55.6
                                                     2.32D-05  3.74D-04
 d= 0,ls=0.5,diis   220   -156.9288153749 -8.38D-05  7.48D-04  3.19D-04    55.8
                                                     1.23D-05  2.89D-04
 d= 0,ls=0.5,diis   221   -156.9288820376 -6.67D-05  7.07D-04  2.71D-04    56.1
                                                     4.32D-05  2.39D-04
 d= 0,ls=0.5,diis   222   -156.9288763085  5.73D-06  7.52D-04  3.36D-04    56.3
                                                     2.80D-05  3.11D-04
 d= 0,ls=0.5,diis   223   -156.9289651696 -8.89D-05  6.35D-04  2.48D-04    56.5
                                                     6.72D-05  2.18D-04
 d= 0,ls=0.5,diis   224   -156.9289217704  4.34D-05  6.56D-04  3.65D-04    56.8
                                                     1.77D-05  3.43D-04
 d= 0,ls=0.5,diis   225   -156.9289613683 -3.96D-05  6.21D-04  3.46D-04    57.0
                                                     2.80D-05  3.23D-04
 d= 0,ls=0.5,diis   226   -156.9289710674 -9.70D-06  8.26D-04  3.73D-04    57.3
                                                     8.02D-05  3.53D-04
 d= 0,ls=0.5,diis   227   -156.9291298008 -1.59D-04  6.39D-04  1.70D-04    57.6
                                                     3.00D-05  1.39D-04
 d= 0,ls=0.5,diis   228   -156.9291437319 -1.39D-05  6.18D-04  1.96D-04    57.8
                                                     2.57D-05  1.70D-04
 d= 0,ls=0.5,diis   229   -156.9291575139 -1.38D-05  6.44D-04  2.17D-04    58.1
                                                     8.65D-06  1.94D-04
 d= 0,ls=0.5,diis   230   -156.9292069731 -4.95D-05  6.15D-04  1.80D-04    58.4
                                                     9.91D-06  1.56D-04
 d= 0,ls=0.5,diis   231   -156.9292392749 -3.23D-05  5.75D-04  1.69D-04    58.6
                                                     2.95D-05  1.46D-04
 d= 0,ls=0.5,diis   232   -156.9292467806 -7.51D-06  5.83D-04  1.95D-04    58.9
                                                     8.43D-06  1.74D-04
 d= 0,ls=0.5,diis   233   -156.9292806809 -3.39D-05  5.74D-04  1.77D-04    59.1
                                                     1.42D-05  1.57D-04
 d= 0,ls=0.5,diis   234   -156.9293083003 -2.76D-05  5.36D-04  1.68D-04    59.4
                                                     2.99D-05  1.48D-04
 d= 0,ls=0.5,diis   235   -156.9293134995 -5.20D-06  5.23D-04  1.92D-04    59.7
                                                     2.56D-05  1.74D-04
 d= 0,ls=0.5,diis   236   -156.9293207646 -7.27D-06  5.33D-04  2.11D-04    59.9
                                                     1.22D-05  1.94D-04
 d= 0,ls=0.5,diis   237   -156.9293473161 -2.66D-05  5.56D-04  1.98D-04    60.2
                                                     1.52D-05  1.80D-04
 d= 0,ls=0.5,diis   238   -156.9293956316 -4.83D-05  5.35D-04  1.51D-04    60.4
                                                     8.46D-06  1.33D-04
 d= 0,ls=0.5,diis   239   -156.9294289509 -3.33D-05  4.59D-04  1.29D-04    60.7
                                                     3.33D-05  1.10D-04
 d= 0,ls=0.5,diis   240   -156.9294255261  3.42D-06  4.39D-04  1.61D-04    60.9
                                                     4.01D-05  1.44D-04
 d= 0,ls=0.5,diis   241   -156.9294102702  1.53D-05  4.82D-04  2.09D-04    61.2
                                                     1.43D-05  1.95D-04
 d= 0,ls=0.5,diis   242   -156.9294476089 -3.73D-05  4.68D-04  1.73D-04    61.5
                                                     6.68D-06  1.58D-04
 d= 0,ls=0.5,diis   243   -156.9294696489 -2.20D-05  4.41D-04  1.62D-04    61.7
                                                     1.43D-05  1.48D-04
 d= 0,ls=0.5,diis   244   -156.9294813039 -1.17D-05  4.35D-04  1.66D-04    62.0
                                                     1.09D-05  1.51D-04
 d= 0,ls=0.5,diis   245   -156.9294958366 -1.45D-05  4.61D-04  1.63D-04    62.2
                                                     1.21D-05  1.50D-04
 d= 0,ls=0.5,diis   246   -156.9295294548 -3.36D-05  3.94D-04  1.32D-04    62.5
                                                     3.19D-05  1.17D-04
 d= 0,ls=0.5,diis   247   -156.9295189635  1.05D-05  3.69D-04  1.69D-04    62.7
                                                     3.60D-05  1.56D-04
 d= 0,ls=0.5,diis   248   -156.9295006932  1.83D-05  3.79D-04  2.14D-04    63.0
                                                     1.18D-05  2.04D-04
 d= 0,ls=0.5,diis   249   -156.9295151694 -1.45D-05  3.91D-04  2.07D-04    63.2
                                                     1.29D-05  1.95D-04
 d= 0,ls=0.5,diis   250   -156.9295484850 -3.33D-05  3.50D-04  1.69D-04    63.5
                                                     3.01D-05  1.56D-04
 d= 0,ls=0.5,diis   251   -156.9295321977  1.63D-05  3.54D-04  2.11D-04    63.8
                                                     1.21D-05  2.02D-04
 d= 0,ls=0.5,diis   252   -156.9295410487 -8.85D-06  4.06D-04  2.11D-04    64.0
                                                     2.85D-05  2.01D-04
 d= 0,ls=0.5,diis   253   -156.9295890519 -4.80D-05  3.82D-04  1.51D-04    64.2
                                                     7.50D-06  1.40D-04
 d= 0,ls=0.5,diis   254   -156.9296122367 -2.32D-05  4.26D-04  1.30D-04    64.5
                                                     2.52D-05  1.19D-04
 d= 0,ls=0.5,diis   255   -156.9296499128 -3.77D-05  3.92D-04  8.65D-05    64.7
                                                     8.63D-06  7.47D-05
 d= 0,ls=0.5,diis   256   -156.9296687799 -1.89D-05  4.60D-04  7.26D-05    65.0
                                                     3.01D-05  6.14D-05
 d= 0,ls=0.5,diis   257   -156.9297008617 -3.21D-05  3.41D-04  3.82D-05    65.2
                                                     3.39D-05  2.78D-05
 d= 0,ls=0.5,diis   258   -156.9296964554  4.41D-06  3.26D-04  6.09D-05    65.5
                                                     2.03D-05  5.15D-05
 d= 0,ls=0.5,diis   259   -156.9296966146 -1.59D-07  3.50D-04  7.32D-05    65.7
                                                     1.06D-05  6.44D-05
 d= 0,ls=0.5,diis   260   -156.9297137158 -1.71D-05  3.28D-04  5.72D-05    66.0
                                                     7.65D-06  4.80D-05
 d= 0,ls=0.5,diis   261   -156.9297228956 -9.18D-06  3.35D-04  5.43D-05    66.2
                                                     4.78D-06  4.53D-05
 d= 0,ls=0.5,diis   262   -156.9297339305 -1.10D-05  3.61D-04  4.82D-05    66.5
                                                     1.66D-05  3.95D-05
 d= 0,ls=0.5,diis   263   -156.9297529268 -1.90D-05  3.19D-04  3.00D-05    66.8
                                                     1.33D-05  2.18D-05
 d= 0,ls=0.5,diis   264   -156.9297582036 -5.28D-06  3.00D-04  3.27D-05    67.0
                                                     1.31D-05  2.50D-05
 d= 0,ls=0.5,diis   265   -156.9297625004 -4.30D-06  2.94D-04  3.61D-05    67.3
                                                     8.69D-06  2.86D-05
 d= 0,ls=0.5,diis   266   -156.9297683814 -5.88D-06  2.64D-04  3.62D-05    67.5
                                                     2.08D-05  2.90D-05
 d= 0,ls=0.5,diis   267   -156.9297675646  8.17D-07  2.47D-04  4.62D-05    67.8
                                                     2.47D-05  3.95D-05
 d= 0,ls=0.5,diis   268   -156.9297629228  4.64D-06  2.32D-04  6.12D-05    68.0
                                                     2.45D-05  5.51D-05
 d= 0,ls=0.5,diis   269   -156.9297560018  6.92D-06  2.25D-04  7.87D-05    68.2
                                                     1.51D-05  7.32D-05
 d= 0,ls=0.5,diis   270   -156.9297553585  6.43D-07  2.38D-04  8.54D-05    68.5
                                                     7.64D-06  8.00D-05
 d= 0,ls=0.5,diis   271   -156.9297660226 -1.07D-05  2.34D-04  7.43D-05    68.7
                                                     3.50D-06  6.84D-05
 d= 0,ls=0.5,diis   272   -156.9297733284 -7.31D-06  2.63D-04  6.92D-05    69.0
                                                     1.89D-05  6.33D-05
 d= 0,ls=0.5,diis   273   -156.9297921320 -1.88D-05  2.69D-04  4.63D-05    69.2
                                                     1.35D-05  4.02D-05
 d= 0,ls=0.5,diis   274   -156.9298058123 -1.37D-05  2.58D-04  3.18D-05    69.5
                                                     8.44D-06  2.61D-05
 d= 0,ls=0.5,diis   275   -156.9298146826 -8.87D-06  2.42D-04  2.51D-05    69.7
                                                     7.82D-06  1.99D-05
 d= 0,ls=0.5,diis   276   -156.9298184999 -3.82D-06  2.23D-04  2.58D-05    69.9
                                                     1.42D-05  2.09D-05
 d= 0,ls=0.5,diis   277   -156.9298188120 -3.12D-07  2.15D-04  3.13D-05    70.2
                                                     1.07D-05  2.66D-05
 d= 0,ls=0.5,diis   278   -156.9298203968 -1.58D-06  2.13D-04  3.40D-05    70.4
                                                     6.46D-06  2.95D-05
 d= 0,ls=0.5,diis   279   -156.9298238254 -3.43D-06  2.14D-04  3.36D-05    70.7
                                                     3.15D-06  2.92D-05
 d= 0,ls=0.5,diis   280   -156.9298287929 -4.97D-06  2.21D-04  3.07D-05    70.9
                                                     4.04D-06  2.63D-05
 d= 0,ls=0.5,diis   281   -156.9298352547 -6.46D-06  2.07D-04  2.55D-05    71.2
                                                     2.49D-06  2.13D-05
 d= 0,ls=0.5,diis   282   -156.9298395238 -4.27D-06  2.00D-04  2.35D-05    71.4
                                                     5.66D-06  1.95D-05
 d= 0,ls=0.5,diis   283   -156.9298422126 -2.69D-06  1.95D-04  2.39D-05    71.7
                                                     6.73D-06  2.00D-05
 d= 0,ls=0.5,diis   284   -156.9298444438 -2.23D-06  1.96D-04  2.47D-05    71.9
                                                     2.53D-06  2.08D-05
 d= 0,ls=0.5,diis   285   -156.9298484826 -4.04D-06  1.88D-04  2.24D-05    72.2
                                                     4.50D-06  1.86D-05
 d= 0,ls=0.5,diis   286   -156.9298512958 -2.81D-06  1.84D-04  2.20D-05    72.4
                                                     4.54D-06  1.83D-05
 d= 0,ls=0.5,diis   287   -156.9298538738 -2.58D-06  1.77D-04  2.17D-05    72.7
                                                     4.55D-06  1.83D-05
 d= 0,ls=0.5,diis   288   -156.9298563129 -2.44D-06  1.67D-04  2.14D-05    72.9
                                                     9.30D-06  1.82D-05
 d= 0,ls=0.5,diis   289   -156.9298568191 -5.06D-07  1.67D-04  2.39D-05    73.2
                                                     3.80D-06  2.08D-05
 d= 0,ls=0.5,diis   290   -156.9298592771 -2.46D-06  1.84D-04  2.31D-05    73.5
                                                     7.21D-06  2.02D-05
 d= 0,ls=0.5,diis   291   -156.9298651784 -5.90D-06  1.87D-04  1.69D-05    73.7
                                                     7.17D-06  1.41D-05
 d= 0,ls=0.5,diis   292   -156.9298705389 -5.36D-06  1.84D-04  1.18D-05    74.0
                                                     3.63D-06  9.23D-06
 d= 0,ls=0.5,diis   293   -156.9298742006 -3.66D-06  1.76D-04  9.36D-06    74.3
                                                     1.94D-06  7.10D-06
 d= 0,ls=0.5,diis   294   -156.9298772174 -3.02D-06  1.64D-04  7.74D-06    74.5
                                                     5.34D-06  5.61D-06
 d= 0,ls=0.5,diis   295   -156.9298789589 -1.74D-06  1.65D-04  7.90D-06    74.8
                                                     1.99D-06  5.90D-06
 d= 0,ls=0.5,diis   296   -156.9298813170 -2.36D-06  1.49D-04  6.94D-06    75.0
                                                     8.79D-06  5.08D-06
 d= 0,ls=0.5,diis   297   -156.9298819886 -6.72D-07  1.25D-04  8.43D-06    75.3
                                                     2.14D-05  6.65D-06
 d= 0,ls=0.5,diis   298   -156.9298788376  3.15D-06  1.27D-04  1.56D-05    75.5
                                                     1.03D-05  1.41D-05
 d= 0,ls=0.5,diis   299   -156.9298786210  2.17D-07  1.23D-04  1.78D-05    75.8
                                                     7.07D-06  1.62D-05
 d= 0,ls=0.5,diis   300   -156.9298791221 -5.01D-07  1.19D-04  1.87D-05    76.1
                                                     6.19D-06  1.72D-05
 d= 0,ls=0.5,diis   301   -156.9298795165 -3.94D-07  1.38D-04  1.97D-05    76.3
                                                     1.07D-05  1.82D-05
 d= 0,ls=0.5,diis   302   -156.9298850037 -5.49D-06  1.25D-04  1.28D-05    76.6
                                                     2.50D-06  1.12D-05
 d= 0,ls=0.5,diis   303   -156.9298863244 -1.32D-06  1.19D-04  1.28D-05    76.8
                                                     3.28D-06  1.12D-05
 d= 0,ls=0.5,diis   304   -156.9298873906 -1.07D-06  1.18D-04  1.29D-05    77.1
                                                     2.29D-06  1.14D-05
 d= 0,ls=0.5,diis   305   -156.9298887683 -1.38D-06  1.19D-04  1.24D-05    77.4
                                                     2.36D-06  1.09D-05
 d= 0,ls=0.5,diis   306   -156.9298903710 -1.60D-06  1.28D-04  1.15D-05    77.6
                                                     4.51D-06  1.01D-05
 d= 0,ls=0.5,diis   307   -156.9298931635 -2.79D-06  1.23D-04  8.77D-06    77.9
                                                     1.17D-06  7.32D-06
 d= 0,ls=0.5,diis   308   -156.9298949691 -1.81D-06  1.03D-04  7.57D-06    78.1
                                                     1.16D-05  6.19D-06
 d= 0,ls=0.5,diis   309   -156.9298936919  1.28D-06  1.30D-04  1.11D-05    78.4
                                                     9.15D-06  9.84D-06
 d= 0,ls=0.5,diis   310   -156.9298974100 -3.72D-06  1.22D-04  6.50D-06    78.6
                                                     2.46D-06  5.25D-06
 d= 0,ls=0.5,diis   311   -156.9298991923 -1.78D-06  1.18D-04  5.16D-06    78.9
                                                     1.42D-06  3.99D-06
 d= 0,ls=0.5,diis   312   -156.9299006393 -1.45D-06  9.89D-05  4.32D-06    79.1
                                                     8.23D-06  3.23D-06
 d= 0,ls=0.5,diis   313   -156.9299005180  1.21D-07  1.06D-04  5.83D-06    79.4
                                                     2.35D-06  4.74D-06
 d= 0,ls=0.5,diis   314   -156.9299015048 -9.87D-07  1.11D-04  5.48D-06    79.6
                                                     2.44D-06  4.44D-06
 d= 0,ls=0.5,diis   315   -156.9299030790 -1.57D-06  1.00D-04  4.15D-06    79.8
                                                     4.29D-06  3.19D-06
 d= 0,ls=0.5,diis   316   -156.9299035685 -4.90D-07  9.85D-05  4.52D-06    80.1
                                                     1.96D-06  3.59D-06
 d= 0,ls=0.5,diis   317   -156.9299043828 -8.14D-07  9.64D-05  4.30D-06    80.3
                                                     2.10D-06  3.40D-06
 d= 0,ls=0.5,diis   318   -156.9299051932 -8.10D-07  9.41D-05  4.02D-06    80.6
                                                     2.51D-06  3.18D-06
 d= 0,ls=0.5,diis   319   -156.9299058107 -6.18D-07  8.98D-05  4.02D-06    80.8
                                                     3.00D-06  3.23D-06
 d= 0,ls=0.5,diis   320   -156.9299063144 -5.04D-07  8.31D-05  4.14D-06    81.0
                                                     5.69D-06  3.39D-06
 d= 0,ls=0.5,diis   321   -156.9299063328 -1.85D-08  1.01D-04  4.93D-06    81.3
                                                     6.74D-06  4.22D-06
 d= 0,ls=0.5,diis   322   -156.9299082307 -1.90D-06  8.74D-05  2.78D-06    81.5
                                                     2.72D-06  2.16D-06
 d= 0,ls=0.5,diis   323   -156.9299087083 -4.78D-07  8.70D-05  2.92D-06    81.8
                                                     2.37D-06  2.34D-06
 d= 0,ls=0.5,diis   324   -156.9299092504 -5.42D-07  8.67D-05  2.87D-06    82.0
                                                     1.47D-06  2.32D-06
 d= 0,ls=0.5,diis   325   -156.9299099801 -7.30D-07  8.01D-05  2.48D-06    82.3
                                                     3.37D-06  1.93D-06
 d= 0,ls=0.5,diis   326   -156.9299102879 -3.08D-07  7.79D-05  2.73D-06    82.5
                                                     2.49D-06  2.23D-06
 d= 0,ls=0.5,diis   327   -156.9299106897 -4.02D-07  7.75D-05  2.76D-06    82.7
                                                     1.56D-06  2.28D-06
 d= 0,ls=0.5,diis   328   -156.9299112286 -5.39D-07  7.60D-05  2.56D-06    83.0
                                                     1.79D-06  2.10D-06
 d= 0,ls=0.5,diis   329   -156.9299116728 -4.44D-07  6.88D-05  2.48D-06    83.3
                                                     4.78D-06  2.04D-06
 d= 0,ls=0.5,diis   330   -156.9299116938 -2.10D-08  6.75D-05  3.03D-06    83.5
                                                     3.50D-06  2.61D-06
 d= 0,ls=0.5,diis   331   -156.9299118589 -1.65D-07  7.18D-05  3.29D-06    83.8
                                                     2.07D-06  2.88D-06
 d= 0,ls=0.5,diis   332   -156.9299126214 -7.63D-07  6.99D-05  2.61D-06    84.0
                                                     1.26D-06  2.22D-06
 d= 0,ls=0.5,diis   333   -156.9299130801 -4.59D-07  7.16D-05  2.43D-06    84.3
                                                     1.27D-06  2.05D-06
 d= 0,ls=0.5,diis   334   -156.9299137341 -6.54D-07  6.82D-05  1.92D-06    84.6
                                                     9.56D-07  1.54D-06
 d= 0,ls=0.5,diis   335   -156.9299141349 -4.01D-07  6.21D-05  1.80D-06    84.8
                                                     3.16D-06  1.44D-06
 d= 0,ls=0.5,diis   336   -156.9299142331 -9.82D-08  5.98D-05  2.13D-06    85.1
                                                     2.67D-06  1.76D-06
 d= 0,ls=0.5,diis   337   -156.9299143835 -1.50D-07  5.56D-05  2.31D-06    85.3
                                                     3.87D-06  1.94D-06
 d= 0,ls=0.5,diis   338   -156.9299143651  1.85D-08  6.69D-05  2.72D-06    85.6
                                                     3.67D-06  2.36D-06
 d= 0,ls=0.5,diis   339   -156.9299151946 -8.30D-07  6.20D-05  1.79D-06    85.9
                                                     5.96D-07  1.44D-06
 d= 0,ls=0.5,diis   340   -156.9299156151 -4.21D-07  5.81D-05  1.53D-06    86.1
                                                     1.38D-06  1.20D-06
 d= 0,ls=0.5,diis   341   -156.9299158547 -2.40D-07  6.20D-05  1.54D-06    86.4
                                                     1.79D-06  1.23D-06
 d= 0,ls=0.5,diis   342   -156.9299163507 -4.96D-07  5.69D-05  1.13D-06    86.6
                                                     1.72D-06  8.41D-07
 d= 0,ls=0.5,diis   343   -156.9299165664 -2.16D-07  5.61D-05  1.14D-06    86.9
                                                     1.33D-06  8.68D-07
 d= 0,ls=0.5,diis   344   -156.9299168125 -2.46D-07  5.65D-05  1.08D-06    87.2
                                                     5.04D-07  8.21D-07
 d= 0,ls=0.5,diis   345   -156.9299171165 -3.04D-07  5.37D-05  9.24D-07    87.4
                                                     1.28D-06  6.81D-07
 d= 0,ls=0.5,diis   346   -156.9299173222 -2.06D-07  4.86D-05  9.09D-07    87.7
                                                     3.07D-06  6.79D-07
 d= 0,ls=0.5,diis   347   -156.9299173616 -3.95D-08  4.92D-05  1.13D-06    87.9
                                                     1.62D-06  9.10D-07
 d= 0,ls=0.5,diis   348   -156.9299175317 -1.70D-07  4.83D-05  1.12D-06    88.2
                                                     1.08D-06  9.12D-07
 d= 0,ls=0.5,diis   349   -156.9299177220 -1.90D-07  4.78D-05  1.08D-06    88.4
                                                     1.41D-06  8.70D-07
 d= 0,ls=0.5,diis   350   -156.9299178833 -1.61D-07  4.33D-05  1.06D-06    88.7
                                                     2.37D-06  8.67D-07
 d= 0,ls=0.5,diis   351   -156.9299179399 -5.66D-08  4.03D-05  1.19D-06    88.9
                                                     3.14D-06  1.02D-06
 d= 0,ls=0.5,diis   352   -156.9299178933  4.66D-08  3.67D-05  1.48D-06    89.2
                                                     4.86D-06  1.31D-06
 d= 0,ls=0.5,diis   353   -156.9299175808  3.13D-07  3.62D-05  2.15D-06    89.5
                                                     2.75D-06  2.03D-06
 d= 0,ls=0.5,diis   354   -156.9299175169  6.39D-08  4.63D-05  2.40D-06    89.7
                                                     5.05D-06  2.29D-06
 d= 0,ls=0.5,diis   355   -156.9299182495 -7.33D-07  3.85D-05  1.44D-06    90.0
                                                     1.66D-06  1.30D-06
 d= 0,ls=0.5,diis   356   -156.9299183229 -7.34D-08  4.03D-05  1.52D-06    90.2
                                                     9.29D-07  1.38D-06
 d= 0,ls=0.5,diis   357   -156.9299186014 -2.79D-07  3.94D-05  1.25D-06    90.5
                                                     3.57D-07  1.10D-06
 d= 0,ls=0.5,diis   358   -156.9299188051 -2.04D-07  4.77D-05  1.10D-06    90.7
                                                     4.15D-06  9.57D-07
 d= 0,ls=0.5,diis   359   -156.9299192692 -4.64D-07  4.22D-05  5.57D-07    91.0
                                                     9.31D-07  4.17D-07
 d= 0,ls=0.5,diis   360   -156.9299194251 -1.56D-07  3.69D-05  5.05D-07    91.3
                                                     2.05D-06  3.75D-07
 d= 0,ls=0.5,diis   361   -156.9299194758 -5.06D-08  3.63D-05  5.96D-07    91.5
                                                     1.62D-06  4.69D-07
 d= 0,ls=0.5,diis   362   -156.9299195398 -6.40D-08  3.70D-05  6.47D-07    91.8
                                                     5.49D-07  5.22D-07
 d= 0,ls=0.5,diis   363   -156.9299196732 -1.33D-07  3.78D-05  5.78D-07    92.0
                                                     5.73D-07  4.59D-07
 d= 0,ls=0.5,diis   364   -156.9299198285 -1.55D-07  3.19D-05  4.73D-07    92.3
                                                     2.82D-06  3.61D-07
 d= 0,ls=0.5,diis   365   -156.9299198044  2.41D-08  3.14D-05  6.43D-07    92.5
                                                     1.73D-06  5.33D-07
 d= 0,ls=0.5,diis   366   -156.9299198325 -2.80D-08  2.97D-05  7.16D-07    92.8
                                                     1.53D-06  6.08D-07
 d= 0,ls=0.5,diis   367   -156.9299198595 -2.70D-08  3.01D-05  7.81D-07    93.0
                                                     1.06D-06  6.75D-07
 d= 0,ls=0.5,diis   368   -156.9299199383 -7.88D-08  2.94D-05  7.51D-07    93.3
                                                     8.16D-07  6.49D-07
 d= 0,ls=0.5,diis   369   -156.9299200086 -7.03D-08  3.86D-05  7.39D-07    93.5
                                                     3.88D-06  6.38D-07
 d= 0,ls=0.5,diis   370   -156.9299203343 -3.26D-07  3.62D-05  3.34D-07    93.8
                                                     1.91D-06  2.48D-07
 d= 0,ls=0.5,diis   371   -156.9299205005 -1.66D-07  2.90D-05  1.95D-07    94.0
                                                     2.88D-06  1.23D-07
 d= 0,ls=0.5,diis   372   -156.9299204864  1.41D-08  2.65D-05  3.29D-07    94.3
                                                     2.75D-06  2.57D-07
 d= 0,ls=0.5,diis   373   -156.9299204444  4.20D-08  2.58D-05  4.87D-07    94.5
                                                     1.89D-06  4.17D-07
 d= 0,ls=0.5,diis   374   -156.9299204412  3.24D-09  2.58D-05  5.71D-07    94.8
                                                     9.90D-07  5.02D-07
 d= 0,ls=0.5,diis   375   -156.9299204892 -4.81D-08  2.52D-05  5.70D-07    95.0
                                                     7.43D-07  5.02D-07
 d= 0,ls=0.5,diis   376   -156.9299205413 -5.21D-08  2.37D-05  5.60D-07    95.3
                                                     1.08D-06  4.94D-07
 d= 0,ls=0.5,diis   377   -156.9299205637 -2.24D-08  2.33D-05  5.91D-07    95.5
                                                     9.28D-07  5.27D-07
 d= 0,ls=0.5,diis   378   -156.9299205870 -2.32D-08  2.38D-05  6.19D-07    95.8
                                                     4.56D-07  5.58D-07
 d= 0,ls=0.5,diis   379   -156.9299206587 -7.17D-08  2.58D-05  5.65D-07    96.0
                                                     1.27D-06  5.03D-07
 d= 0,ls=0.5,diis   380   -156.9299207928 -1.34D-07  3.07D-05  4.25D-07    96.3
                                                     3.20D-06  3.65D-07
 d= 0,ls=0.5,diis   381   -156.9299209966 -2.04D-07  2.75D-05  1.82D-07    96.5
                                                     6.67D-07  1.27D-07
 d= 0,ls=0.5,diis   382   -156.9299210602 -6.37D-08  2.28D-05  1.59D-07    96.7
                                                     2.27D-06  1.12D-07
 d= 0,ls=0.5,diis   383   -156.9299210433  1.69D-08  2.02D-05  2.51D-07    97.0
                                                     2.53D-06  2.06D-07
 d= 0,ls=0.5,diis   384   -156.9299209996  4.37D-08  2.21D-05  3.73D-07    97.3
                                                     6.31D-07  3.30D-07
 d= 0,ls=0.5,diis   385   -156.9299210641 -6.45D-08  2.14D-05  3.22D-07    97.5
                                                     3.90D-07  2.77D-07
 d= 0,ls=0.5,diis   386   -156.9299211105 -4.64D-08  2.23D-05  2.99D-07    97.8
                                                     5.35D-07  2.56D-07
 d= 0,ls=0.5,diis   387   -156.9299211843 -7.38D-08  2.20D-05  2.33D-07    98.1
                                                     1.94D-07  1.91D-07
 d= 0,ls=0.5,diis   388   -156.9299212402 -5.59D-08  2.02D-05  1.97D-07    98.3
                                                     8.44D-07  1.57D-07
 d= 0,ls=0.5,diis   389   -156.9299212593 -1.91D-08  1.94D-05  2.17D-07    98.6
                                                     7.55D-07  1.78D-07
 d= 0,ls=0.5,diis   390   -156.9299212811 -2.18D-08  1.90D-05  2.26D-07    98.9
                                                     5.98D-07  1.88D-07
 d= 0,ls=0.5,diis   391   -156.9299213058 -2.47D-08  1.84D-05  2.29D-07    99.2
                                                     5.29D-07  1.92D-07
 d= 0,ls=0.5,diis   392   -156.9299213321 -2.64D-08  1.81D-05  2.27D-07    99.4
                                                     5.94D-07  1.90D-07
 d= 0,ls=0.5,diis   393   -156.9299213526 -2.05D-08  1.75D-05  2.33D-07    99.7
                                                     5.96D-07  1.97D-07
 d= 0,ls=0.5,diis   394   -156.9299213714 -1.88D-08  1.73D-05  2.40D-07    99.9
                                                     3.83D-07  2.06D-07
 d= 0,ls=0.5,diis   395   -156.9299213988 -2.73D-08  1.65D-05  2.30D-07   100.2
                                                     6.43D-07  1.97D-07
 d= 0,ls=0.5,diis   396   -156.9299214157 -1.69D-08  1.50D-05  2.34D-07   100.5
                                                     1.08D-06  2.04D-07
 d= 0,ls=0.5,diis   397   -156.9299214069  8.84D-09  2.62D-05  2.80D-07   100.7
                                                     4.18D-06  2.52D-07
 d= 0,ls=0.5,diis   398   -156.9299215712 -1.64D-07  1.83D-05  5.52D-08   101.0
                                                     1.13D-06  3.15D-08
 d= 0,ls=0.5,diis   399   -156.9299215837 -1.25D-08  1.42D-05  7.49D-08   101.3
                                                     2.68D-06  5.24D-08
 d= 0,ls=0.5,diis   400   -156.9299215401  4.36D-08  1.43D-05  1.76D-07   101.5
                                                     1.03D-06  1.54D-07
 d= 0,ls=0.5,diis   401   -156.9299215395  6.57D-10  1.46D-05  2.00D-07   101.8
                                                     4.88D-07  1.80D-07
 d= 0,ls=0.5,diis   402   -156.9299215622 -2.27D-08  1.41D-05  1.87D-07   102.0
                                                     4.07D-07  1.67D-07
 d= 0,ls=0.5,diis   403   -156.9299215797 -1.76D-08  1.40D-05  1.82D-07   102.3
                                                     2.63D-07  1.63D-07
 d= 0,ls=0.5,diis   404   -156.9299215996 -1.98D-08  1.41D-05  1.74D-07   102.6
                                                     2.07D-07  1.55D-07
 d= 0,ls=0.5,diis   405   -156.9299216232 -2.36D-08  1.46D-05  1.59D-07   102.8
                                                     2.92D-07  1.40D-07
 d= 0,ls=0.5,diis   406   -156.9299216545 -3.12D-08  1.32D-05  1.33D-07   103.1
                                                     4.31D-07  1.14D-07
 d= 0,ls=0.5,diis   407   -156.9299216654 -1.10D-08  1.50D-05  1.37D-07   103.3
                                                     7.08D-07  1.18D-07
 d= 0,ls=0.5,diis   408   -156.9299217036 -3.82D-08  1.41D-05  9.96D-08   103.6
                                                     1.97D-07  8.07D-08
 d= 0,ls=0.5,diis   409   -156.9299217215 -1.79D-08  1.38D-05  9.28D-08   103.8
                                                     1.07D-07  7.47D-08
 d= 0,ls=0.5,diis   410   -156.9299217410 -1.95D-08  1.21D-05  8.23D-08   104.1
                                                     9.82D-07  6.52D-08
 d= 0,ls=0.5,diis   411   -156.9299217390  2.02D-09  1.04D-05  1.04D-07   104.3
                                                     1.73D-06  8.81D-08
 d= 0,ls=0.5,diis   412   -156.9299217083  3.07D-08  1.03D-05  1.68D-07   104.6
                                                     8.40D-07  1.54D-07
 d= 0,ls=0.5,diis   413   -156.9299217028  5.49D-09  1.54D-05  1.89D-07   104.8
                                                     2.27D-06  1.75D-07
 d= 0,ls=0.5,diis   414   -156.9299217844 -8.16D-08  1.35D-05  7.55D-08   105.1
                                                     6.54D-07  5.98D-08
 d= 0,ls=0.5,diis   415   -156.9299218111 -2.66D-08  1.25D-05  5.18D-08   105.3
[...]
    15      3.647090   1 C  pz               30     -1.871189   2 C  pz        
    36      1.876731   3 C  s                51     -1.877093   4 C  s         
    13      1.753728   1 C  px               35      1.740140   3 C  s         
    50     -1.739308   4 C  s                34     -1.641441   3 C  s         
    49      1.640716   4 C  s                14      1.162852   1 C  py        
 
 Vector   68  Occ=0.000000D+00  E= 2.470178D+00
              MO Center= -1.3D+00,  2.8D-01,  5.2D-01, r^2= 3.7D+00
   Bfn.  Coefficient  Atom+Function         Bfn.  Coefficient  Atom+Function  
  ----- ------------  ---------------      ----- ------------  ---------------
    74      1.234120   9 H  s                80     -1.234744  11 H  s         
    71     -1.064633   8 H  s                83      1.064890  12 H  s         
    75     -0.868628   9 H  s                81      0.868886  11 H  s         
    73     -0.842754   9 H  s                79      0.843330  11 H  s         
    72      0.791492   8 H  s                84     -0.791510  12 H  s         
 
 Vector   69  Occ=0.000000D+00  E= 2.490415D+00
              MO Center= -1.2D+00,  2.8D-01,  4.9D-01, r^2= 3.9D+00
   Bfn.  Coefficient  Atom+Function         Bfn.  Coefficient  Atom+Function  
  ----- ------------  ---------------      ----- ------------  ---------------
    74     -1.141891   9 H  s                80     -1.141044  11 H  s         
    71      1.061965   8 H  s                83      1.061723  12 H  s         
    73      0.832780   9 H  s                79      0.832216  11 H  s         
    70     -0.744348   8 H  s                82     -0.744132  12 H  s         
    14      0.575096   1 C  py               75      0.463875   9 H  s         
 
 Vector   70  Occ=0.000000D+00  E= 2.522328D+00
              MO Center= -3.3D-01,  2.3D-01,  1.0D-01, r^2= 5.5D+00
   Bfn.  Coefficient  Atom+Function         Bfn.  Coefficient  Atom+Function  
  ----- ------------  ---------------      ----- ------------  ---------------
    77      1.264113  10 H  s                68      1.257054   7 H  s         
    13     -0.992771   1 C  px               36     -0.938370   3 C  s         
    76     -0.940931  10 H  s                67     -0.934977   7 H  s         
    51     -0.928994   4 C  s                21      0.771103   2 C  s         
    69     -0.722764   7 H  s                78     -0.724709  10 H  s         
 
 Vector   71  Occ=0.000000D+00  E= 2.524250D+00
              MO Center= -4.0D-01,  2.5D-01,  9.6D-02, r^2= 5.5D+00
   Bfn.  Coefficient  Atom+Function         Bfn.  Coefficient  Atom+Function  
  ----- ------------  ---------------      ----- ------------  ---------------
    15      1.803243   1 C  pz               51     -1.124140   4 C  s         
    36      1.116848   3 C  s                30     -1.075895   2 C  pz        
    71     -1.049353   8 H  s                83      1.044749  12 H  s         
    68      0.919788   7 H  s                77     -0.909760  10 H  s         
    13      0.862025   1 C  px               35      0.770675   3 C  s         
 
 Vector   72  Occ=0.000000D+00  E= 2.620147D+00
              MO Center=  1.3D+00, -3.9D-01, -5.1D-01, r^2= 3.4D+00
   Bfn.  Coefficient  Atom+Function         Bfn.  Coefficient  Atom+Function  
  ----- ------------  ---------------      ----- ------------  ---------------
    30      2.628846   2 C  pz               15     -2.382915   1 C  pz        
    62      1.406036   5 H  s                65     -1.405969   6 H  s         
    28      1.264094   2 C  px               13     -1.144901   1 C  px        
    61     -1.036209   5 H  s                64      1.036155   6 H  s         
    63      0.881754   5 H  s                66     -0.882225   6 H  s         
 
 Vector   73  Occ=0.000000D+00  E= 2.666122D+00
              MO Center=  3.0D-01, -9.1D-02, -1.2D-01, r^2= 2.3D+00
   Bfn.  Coefficient  Atom+Function         Bfn.  Coefficient  Atom+Function  
  ----- ------------  ---------------      ----- ------------  ---------------
     5      3.674989   1 C  s                 4     -2.977259   1 C  s         
    20      2.675770   2 C  s                 6     -2.417271   1 C  s         
    21     -2.275737   2 C  s                19     -2.216542   2 C  s         
    13      1.213949   1 C  px               35      1.063133   3 C  s         
    50      1.063069   4 C  s                34     -0.978428   3 C  s         
 
 Vector   74  Occ=0.000000D+00  E= 2.882184D+00
              MO Center=  1.1D+00, -3.2D-01, -4.1D-01, r^2= 2.2D+00
   Bfn.  Coefficient  Atom+Function         Bfn.  Coefficient  Atom+Function  
  ----- ------------  ---------------      ----- ------------  ---------------
    21      7.702847   2 C  s                 6     -5.026726   1 C  s         
    20     -4.879533   2 C  s                13     -3.802268   1 C  px        
     5      3.293912   1 C  s                19      3.189496   2 C  s         
     4     -2.110121   1 C  s                28     -1.875946   2 C  px        
    15      1.463499   1 C  pz               14      1.141705   1 C  py        
 
 Vector   75  Occ=0.000000D+00  E= 2.955839D+00
              MO Center= -6.4D-01,  2.0D-01,  2.4D-01, r^2= 3.2D+00
   Bfn.  Coefficient  Atom+Function         Bfn.  Coefficient  Atom+Function  
  ----- ------------  ---------------      ----- ------------  ---------------
     6      4.878022   1 C  s                36     -4.142258   3 C  s         
    51     -4.141867   4 C  s                35      3.268601   3 C  s         
    50      3.268163   4 C  s                 5     -3.009221   1 C  s         
    34     -2.314695   3 C  s                49     -2.314389   4 C  s         
     4      1.948070   1 C  s                21     -0.716839   2 C  s         
 
 Vector   76  Occ=0.000000D+00  E= 3.085178D+00
              MO Center= -6.9D-01,  2.1D-01,  2.6D-01, r^2= 4.2D+00
   Bfn.  Coefficient  Atom+Function         Bfn.  Coefficient  Atom+Function  
  ----- ------------  ---------------      ----- ------------  ---------------
    36      9.335576   3 C  s                51     -9.336841   4 C  s         
    15      7.569714   1 C  pz               35     -4.150839   3 C  s         
    50      4.151519   4 C  s                13      3.636237   1 C  px        
    30     -3.589796   2 C  pz               34      2.496632   3 C  s         
    49     -2.497051   4 C  s                14      2.413708   1 C  py        
 
 Vector   77  Occ=0.000000D+00  E= 1.169670D+01
              MO Center=  6.2D-01, -1.9D-01, -2.4D-01, r^2= 1.2D+00
   Bfn.  Coefficient  Atom+Function         Bfn.  Coefficient  Atom+Function  
  ----- ------------  ---------------      ----- ------------  ---------------
    18      2.279889   2 C  s                19     -2.285312   2 C  s         
     4     -2.061394   1 C  s                 3      2.035891   1 C  s         
    20      1.882429   2 C  s                 5      1.669088   1 C  s         
    21     -1.213590   2 C  s                17     -1.205170   2 C  s         
     2     -1.071488   1 C  s                 6     -0.981604   1 C  s         
 
 Vector   78  Occ=0.000000D+00  E= 1.188248D+01
              MO Center= -4.8D-01,  1.4D-01,  1.8D-01, r^2= 2.0D+00
   Bfn.  Coefficient  Atom+Function         Bfn.  Coefficient  Atom+Function  
  ----- ------------  ---------------      ----- ------------  ---------------
    34     -2.279983   3 C  s                49     -2.280103   4 C  s         
    33      2.182218   3 C  s                48      2.182323   4 C  s         
    35      2.041047   3 C  s                50      2.041190   4 C  s         
    36     -1.643790   3 C  s                51     -1.644184   4 C  s         
    32     -1.141486   3 C  s                47     -1.141539   4 C  s         
 
 Vector   79  Occ=0.000000D+00  E= 1.193486D+01
              MO Center= -6.2D-01,  1.9D-01,  2.4D-01, r^2= 2.0D+00
   Bfn.  Coefficient  Atom+Function         Bfn.  Coefficient  Atom+Function  
  ----- ------------  ---------------      ----- ------------  ---------------
    36      2.597024   3 C  s                51     -2.597052   4 C  s         
    34      2.480408   3 C  s                49     -2.480339   4 C  s         
    33     -2.338818   3 C  s                35     -2.343756   3 C  s         
    48      2.338747   4 C  s                50      2.343709   4 C  s         
    15      1.459251   1 C  pz               32      1.218107   3 C  s         
 
 Vector   80  Occ=0.000000D+00  E= 1.208455D+01
              MO Center=  6.7D-01, -2.0D-01, -2.6D-01, r^2= 8.0D-01
   Bfn.  Coefficient  Atom+Function         Bfn.  Coefficient  Atom+Function  
  ----- ------------  ---------------      ----- ------------  ---------------
     4     -2.586515   1 C  s                21      2.592133   2 C  s         
     5      2.471127   1 C  s                 6     -2.459351   1 C  s         
     3      2.433397   1 C  s                19      2.371178   2 C  s         
    20     -2.293666   2 C  s                18     -2.242988   2 C  s         
     2     -1.263602   1 C  s                17      1.167242   2 C  s         
 
 Vector   81  Occ=0.000000D+00  E= 6.265081D+01
              MO Center=  6.0D-01, -1.8D-01, -2.3D-01, r^2= 9.4D-01
   Bfn.  Coefficient  Atom+Function         Bfn.  Coefficient  Atom+Function  
  ----- ------------  ---------------      ----- ------------  ---------------
    17      2.034025   2 C  s                 2      1.839120   1 C  s         
    18     -1.532965   2 C  s                 3     -1.391249   1 C  s         
    16     -1.208866   2 C  s                 1     -1.091895   1 C  s         
    19      0.996491   2 C  s                 4      0.913200   1 C  s         
    20     -0.778084   2 C  s                32      0.730930   3 C  s         
 
 Vector   82  Occ=0.000000D+00  E= 6.283495D+01
              MO Center= -4.6D-01,  1.4D-01,  1.8D-01, r^2= 1.8D+00
   Bfn.  Coefficient  Atom+Function         Bfn.  Coefficient  Atom+Function  
  ----- ------------  ---------------      ----- ------------  ---------------
    32      1.950830   3 C  s                47      1.950945   4 C  s         
    33     -1.489283   3 C  s                48     -1.489372   4 C  s         
    31     -1.152543   3 C  s                46     -1.152610   4 C  s         
    34      1.011528   3 C  s                49      1.011594   4 C  s         
    35     -0.859515   3 C  s                50     -0.859586   4 C  s         
 
 Vector   83  Occ=0.000000D+00  E= 6.288333D+01
              MO Center= -6.2D-01,  1.8D-01,  2.4D-01, r^2= 1.7D+00
   Bfn.  Coefficient  Atom+Function         Bfn.  Coefficient  Atom+Function  
  ----- ------------  ---------------      ----- ------------  ---------------
    32      2.090091   3 C  s                47     -2.090001   4 C  s         
    33     -1.602236   3 C  s                48      1.602167   4 C  s         
    31     -1.232946   3 C  s                46      1.232893   4 C  s         
    34      1.104490   3 C  s                49     -1.104446   4 C  s         
    36      1.096963   3 C  s                51     -1.096967   4 C  s         
 
 Vector   84  Occ=0.000000D+00  E= 6.303154D+01
              MO Center=  6.7D-01, -2.0D-01, -2.6D-01, r^2= 5.3D-01
   Bfn.  Coefficient  Atom+Function         Bfn.  Coefficient  Atom+Function  
  ----- ------------  ---------------      ----- ------------  ---------------
     2      2.173314   1 C  s                17     -2.015484   2 C  s         
     3     -1.674865   1 C  s                18      1.550019   2 C  s         
     1     -1.278070   1 C  s                16      1.186116   2 C  s         
     4      1.162973   1 C  s                21     -1.110991   2 C  s         
    19     -1.068878   2 C  s                 5     -1.057538   1 C  s         
 

   alpha - beta orbital overlaps 
   ----------------------------- 


   alpha      1      2      3      4      5      6      7      8      9     10
    beta      1      2      3      4      5      6      7      8      9     10
 overlap   1.000  1.000  1.000  1.000  1.000  1.000  1.000  1.000  1.000  1.000


   alpha     11     12     13     14     15     16     17     18     19     20
    beta     11     12     13     14     15     16     18     17     19     20
 overlap   0.999  0.999  0.999  1.000  1.000  0.999  0.927  0.925  0.993  0.982


   alpha     21     22     23     24     25     26     27     28     29     30
    beta     21     23     22     25     24     26     27     28     29     30
 overlap   0.990  0.945  0.965  0.938  0.999  0.949  0.999  0.998  0.999  0.999


   alpha     31     32     33     34     35     36     37     38     39     40
    beta     31     32     35     33     34     36     37     38     39     41
 overlap   1.000  0.974  0.814  0.974  0.817  0.987  0.983  1.000  0.998  0.984


   alpha     41     42     43     44     45     46     47     48     49     50
    beta     40     42     43     44     45     46     47     48     49     50
 overlap   0.973  0.972  0.990  0.986  0.991  0.998  1.000  0.999  1.000  1.000


   alpha     51     52     53     54     55     56     57     58     59     60
    beta     51     52     53     54     55     56     57     58     59     60
 overlap   1.000  1.000  1.000  0.998  0.994  0.991  1.000  1.000  0.999  1.000


   alpha     61     62     63     64     65     66     67     68     69     70
    beta     61     62     63     64     65     66     67     68     69     70
 overlap   0.998  1.000  1.000  1.000  1.000  1.000  1.000  0.998  0.997  0.997


   alpha     71     72     73     74     75     76     77     78     79     80
    beta     71     72     73     74     75     76     77     78     79     80
 overlap   0.998  1.000  1.000  1.000  1.000  1.000  1.000  1.000  1.000  1.000


   alpha     81     82     83     84
    beta     81     82     83     84
 overlap   1.000  1.000  1.000  1.000

     --------------------------
     Expectation value of S2:  
     --------------------------
      <S2> =      0.7512 (Exact =     0.7500)
 

 center of mass
 --------------
 x =   0.04067362 y =  -0.01218456 z =  -0.01565419

 moments of inertia (a.u.)
 ------------------
         217.301118371611          20.615513734181         -14.846758703504
          20.615513734181         366.697233513766         -63.035451817679
         -14.846758703504         -63.035451817679         227.293079495173
 
     Multipole analysis of the density
     ---------------------------------
 
     L   x y z        total         alpha         beta         nuclear
     -   - - -        -----         -----         ----         -------
     0   0 0 0     -1.000000    -17.000000    -16.000000     32.000000
 
     1   1 0 0     -0.198080     -0.087287     -0.110793     -0.000000
     1   0 1 0     -0.638033     -0.756504      0.118471      0.000000
     1   0 0 1      0.298667      0.283177      0.015490      0.000000
 
     2   2 0 0    -31.068579    -80.821862    -72.376122    122.129405
     2   1 1 0      2.513497      8.983451      6.097836    -12.567790
     2   1 0 1      0.301295     -4.898942     -4.997247     10.197484
     2   0 2 0    -29.436735    -32.636856    -25.448066     28.648187
     2   0 1 1     -0.994463    -21.029874    -19.920483     39.955894
     2   0 0 2    -28.599844    -76.002227    -69.984167    117.386550
 

 Task  times  cpu:      157.9s     wall:      163.8s
 
 
                                NWChem Input Module
                                -------------------
 
 
 Summary of allocated global arrays
-----------------------------------
  No active global arrays



                         GA Statistics for process    0
                         ------------------------------

       create   destroy   get      put      acc     scatter   gather  read&inc
calls: 1.23e+04 1.23e+04 1.63e+06 7.89e+04 1.22e+06    0        0     1.79e+04 
number of processes/call 7.65e+00 6.66e+01 5.54e+00 0.00e+00 0.00e+00
bytes total:             2.22e+09 2.79e+08 1.19e+09 0.00e+00 0.00e+00 1.43e+05
bytes remote:            1.82e+09 1.61e+08 1.02e+09 0.00e+00 0.00e+00 0.00e+00
Max memory consumed for GA by this process: 459552 bytes
 
 
 
                                     CITATION
                                     --------
                Please cite the following reference when publishing
                           results obtained with NWChem:
 
          E. Apr, E. J. Bylaska, W. A. de Jong, N. Govind, K. Kowalski,
       T. P. Straatsma, M. Valiev, H. J. J. van Dam, Y. Alexeev, J. Anchell,
       V. Anisimov, F. W. Aquino, R. Atta-Fynn, J. Autschbach, N. P. Bauman,
     J. C. Becca, D. E. Bernholdt, K. Bhaskaran-Nair, S. Bogatko, P. Borowski,
        J. Boschen, J. Brabec, A. Bruner, E. Caut, Y. Chen, G. N. Chuev,
      C. J. Cramer, J. Daily, M. J. O. Deegan, T. H. Dunning Jr., M. Dupuis,
   K. G. Dyall, G. I. Fann, S. A. Fischer, A. Fonari, H. Frchtl, L. Gagliardi,
      J. Garza, N. Gawande, S. Ghosh, K. Glaesemann, A. W. Gtz, J. Hammond,
       V. Helms, E. D. Hermes, K. Hirao, S. Hirata, M. Jacquelin, L. Jensen,
   B. G. Johnson, H. Jnsson, R. A. Kendall, M. Klemm, R. Kobayashi, V. Konkov,
      S. Krishnamoorthy, M. Krishnan, Z. Lin, R. D. Lins, R. J. Littlefield,
      A. J. Logsdail, K. Lopata, W. Ma, A. V. Marenich, J. Martin del Campo,
   D. Mejia-Rodriguez, J. E. Moore, J. M. Mullin, T. Nakajima, D. R. Nascimento,
    J. A. Nichols, P. J. Nichols, J. Nieplocha, A. Otero-de-la-Roza, B. Palmer,
    A. Panyala, T. Pirojsirikul, B. Peng, R. Peverati, J. Pittner, L. Pollack,
   R. M. Richard, P. Sadayappan, G. C. Schatz, W. A. Shelton, D. W. Silverstein,
   D. M. A. Smith, T. A. Soares, D. Song, M. Swart, H. L. Taylor, G. S. Thomas,
            V. Tipparaju, D. G. Truhlar, K. Tsemekhman, T. Van Voorhis,
     . Vzquez-Mayagoitia, P. Verma, O. Villa, A. Vishnu, K. D. Vogiatzis,
        D. Wang, J. H. Weare, M. J. Williamson, T. L. Windus, K. Woliski,
        A. T. Wong, Q. Wu, C. Yang, Q. Yu, M. Zacharias, Z. Zhang, Y. Zhao,
                                and R. J. Harrison
                        "NWChem: Past, present, and future
                         J. Chem. Phys. 152, 184102 (2020)
                               doi:10.1063/5.0004997
 
                                      AUTHORS
                                      -------
     E. Apra, E. J. Bylaska, N. Govind, K. Kowalski, M. Valiev, W. A. de Jong,
      T. P. Straatsma, H. J. J. van Dam, D. Wang, T. L. Windus, N. P. Bauman,
       A. Panyala, J. Hammond, J. Autschbach, K. Bhaskaran-Nair, J. Brabec,
    K. Lopata, S. A. Fischer, S. Krishnamoorthy, M. Jacquelin, W. Ma, M. Klemm,
       O. Villa, Y. Chen, V. Anisimov, F. Aquino, S. Hirata, M. T. Hackler,
           Eric Hermes, L. Jensen, J. E. Moore, J. C. Becca, V. Konjkov,
            D. Mejia-Rodriguez, T. Risthaus, M. Malagoli, A. Marenich,
   A. Otero-de-la-Roza, J. Mullin, P. Nichols, R. Peverati, J. Pittner, Y. Zhao,
        P.-D. Fan, A. Fonari, M. J. Williamson, R. J. Harrison, J. R. Rehr,
      M. Dupuis, D. Silverstein, D. M. A. Smith, J. Nieplocha, V. Tipparaju,
      M. Krishnan, B. E. Van Kuiken, A. Vazquez-Mayagoitia, M. Swart, Q. Wu,
   T. Van Voorhis, A. A. Auer, M. Nooijen, L. D. Crosby, E. Brown, G. Cisneros,
     G. I. Fann, H. Fruchtl, J. Garza, K. Hirao, R. A. Kendall, J. A. Nichols,
       K. Tsemekhman, K. Wolinski, J. Anchell, D. E. Bernholdt, P. Borowski,
       T. Clark, D. Clerc, H. Dachsel, M. J. O. Deegan, K. Dyall, D. Elwood,
      E. Glendening, M. Gutowski, A. C. Hess, J. Jaffe, B. G. Johnson, J. Ju,
        R. Kobayashi, R. Kutteh, Z. Lin, R. Littlefield, X. Long, B. Meng,
      T. Nakajima, S. Niu, L. Pollack, M. Rosing, K. Glaesemann, G. Sandrone,
      M. Stave, H. Taylor, G. Thomas, J. H. van Lenthe, A. T. Wong, Z. Zhang.

 Total times  cpu:      157.9s     wall:      163.9s
