 
             Northwest Computational Chemistry Package (NWChem) 7.0.0
             --------------------------------------------------------
 
 
                    Environmental Molecular Sciences Laboratory
                       Pacific Northwest National Laboratory
                                Richland, WA 99352
 
                              Copyright (c) 1994-2020
                       Pacific Northwest National Laboratory
                            Battelle Memorial Institute
 
             NWChem is an open-source computational chemistry package
                        distributed under the terms of the
                      Educational Community License (ECL) 2.0
             A copy of the license is included with this distribution
                              in the LICENSE.TXT file
 
                                  ACKNOWLEDGMENT
                                  --------------

            This software and its documentation were developed at the
            EMSL at Pacific Northwest National Laboratory, a multiprogram
            national laboratory, operated for the U.S. Department of Energy
            by Battelle under Contract Number DE-AC05-76RL01830. Support
            for this work was provided by the Department of Energy Office
            of Biological and Environmental Research, Office of Basic
            Energy Sciences, and the Office of Advanced Scientific Computing.


                                NWChem Input Module
                                -------------------
 
 
 Summary of "ao basis" -> "" (spherical)
 ------------------------------------------------------------------------------
       Tag                 Description            Shells   Functions and Types
 ---------------- ------------------------------  ------  ---------------------
 *                        ahlrichs_vtz                on all atoms 



 Scaling coordinates for geometry "geometry" by  1.889725989
 (inverse scale =  0.529177249)

 
 
                             Geometry "geometry" -> ""
                             -------------------------
 
 Output coordinates in angstroms (scale by  1.889725989 to convert to a.u.)
 
  No.       Tag          Charge          X              Y              Z
 ---- ---------------- ---------- -------------- -------------- --------------
    1 C                    6.0000     0.61546000     1.06018640    -0.10028699
    2 C                    6.0000     1.75640912     0.63063739    -0.66249936
    3 H                    1.0000     0.37301903     2.12924042    -0.14638717
    4 C                    6.0000    -0.40017185     0.22125248     0.58785931
    5 H                    1.0000     2.43441174     1.31670018    -1.17223681
    6 H                    1.0000     2.05826837    -0.41837068    -0.63063593
    7 C                    6.0000    -0.42779126    -1.29624561     0.46359400
    8 C                    6.0000    -1.50698920    -0.47297638    -0.22909987
    9 H                    1.0000    -0.73856893     0.62383387     1.54613811
   10 H                    1.0000    -1.44779451    -0.37778950    -1.31246928
   11 H                    1.0000    -2.51712340    -0.48299086     0.17852655
   12 H                    1.0000    -0.70417372    -1.87250433     1.34530863
   13 H                    1.0000     0.32046070    -1.77524483    -0.16564681
 
      Atomic Mass 
      ----------- 
 
      C                 12.000000
      H                  1.007825
 

 Effective nuclear repulsion energy (a.u.)     163.6275154761

            Nuclear Dipole moment (a.u.) 
            ----------------------------
        X                 Y               Z
 ---------------- ---------------- ----------------
    -0.0000000000    -0.0000000000     0.0000000000
 
 
            XYZ format geometry
            -------------------
    13
 geometry
 C                     0.61546000     1.06018640    -0.10028699
 C                     1.75640912     0.63063739    -0.66249936
 H                     0.37301903     2.12924042    -0.14638717
 C                    -0.40017185     0.22125248     0.58785931
 H                     2.43441174     1.31670018    -1.17223681
 H                     2.05826837    -0.41837068    -0.63063593
 C                    -0.42779126    -1.29624561     0.46359400
 C                    -1.50698920    -0.47297638    -0.22909987
 H                    -0.73856893     0.62383387     1.54613811
 H                    -1.44779451    -0.37778950    -1.31246928
 H                    -2.51712340    -0.48299086     0.17852655
 H                    -0.70417372    -1.87250433     1.34530863
 H                     0.32046070    -1.77524483    -0.16564681
 
 ==============================================================================
                                internuclear distances
 ------------------------------------------------------------------------------
       center one      |      center two      | atomic units |  angstroms
 ------------------------------------------------------------------------------
    2 C                |   1 C                |     2.53699  |     1.34252
    3 H                |   1 C                |     2.07335  |     1.09717
    4 C                |   1 C                |     2.80856  |     1.48622
    5 H                |   2 C                |     2.06162  |     1.09096
    6 H                |   2 C                |     2.06366  |     1.09204
    7 C                |   4 C                |     2.87773  |     1.52283
    8 C                |   4 C                |     2.91191  |     1.54092
    8 C                |   7 C                |     2.87975  |     1.52390
    9 H                |   4 C                |     2.06567  |     1.09311
   10 H                |   8 C                |     2.05820  |     1.08915
   11 H                |   8 C                |     2.05853  |     1.08933
   12 H                |   7 C                |     2.05788  |     1.08898
   13 H                |   7 C                |     2.05734  |     1.08870
 ------------------------------------------------------------------------------
                         number of included internuclear distances:         13
 ==============================================================================



 ==============================================================================
                                 internuclear angles
 ------------------------------------------------------------------------------
        center 1       |       center 2       |       center 3       |  degrees
 ------------------------------------------------------------------------------
    2 C                |   1 C                |   3 H                |   118.81
    2 C                |   1 C                |   4 C                |   126.45
    3 H                |   1 C                |   4 C                |   114.74
    1 C                |   2 C                |   5 H                |   121.51
    1 C                |   2 C                |   6 H                |   122.01
    5 H                |   2 C                |   6 H                |   116.48
    1 C                |   4 C                |   7 C                |   122.49
    1 C                |   4 C                |   8 C                |   119.98
    1 C                |   4 C                |   9 H                |   114.18
    4 C                |   7 C                |   8 C                |    60.76
    7 C                |   4 C                |   9 H                |   115.65
    8 C                |   4 C                |   9 H                |   114.10
    4 C                |   7 C                |   8 C                |    60.76
    4 C                |   7 C                |  12 H                |   117.77
    4 C                |   7 C                |  13 H                |   118.24
    8 C                |   7 C                |  12 H                |   118.31
    8 C                |   7 C                |  13 H                |   117.50
   12 H                |   7 C                |  13 H                |   114.18
    8 C                |   7 C                |   4 C                |    60.76
    4 C                |   8 C                |  10 H                |   116.68
    4 C                |   8 C                |  11 H                |   118.15
    7 C                |   8 C                |  10 H                |   117.44
    7 C                |   8 C                |  11 H                |   118.79
   10 H                |   8 C                |  11 H                |   115.05
 ------------------------------------------------------------------------------
                            number of included internuclear angles:         24
 ==============================================================================



                              Aldehyde and Ketone set
                              -----------------------
 
                                 NWChem DFT Module
                                 -----------------
 
 
                              Aldehyde and Ketone set
 
 
                      Basis "ao basis" -> "ao basis" (spherical)
                      -----
  C (Carbon)
  ----------
            Exponent  Coefficients 
       -------------- ---------------------------------------------------------
  1 S  8.50603840E+03  0.000534
  1 S  1.27573290E+03  0.004125
  1 S  2.90311870E+02  0.021171
  1 S  8.20562000E+01  0.082418
  1 S  2.64796410E+01  0.240129
 
  2 S  9.24145850E+00  1.000000
 
  3 S  3.36435300E+00  1.000000
 
  4 S  8.71741640E-01  1.000000
 
  5 S  3.63523520E-01  1.000000
 
  6 S  1.28731350E-01  1.000000
 
  7 P  3.47094960E+01  0.005330
  7 P  7.95908830E+00  0.035866
  7 P  2.37869720E+00  0.142003
  7 P  8.15400650E-01  0.342031
 
  8 P  2.89537850E-01  1.000000
 
  9 P  1.00847540E-01  1.000000
 
  H (Hydrogen)
  ------------
            Exponent  Coefficients 
       -------------- ---------------------------------------------------------
  1 S  3.40613410E+01  0.006025
  1 S  5.12357460E+00  0.045021
  1 S  1.16466260E+00  0.201897
 
  2 S  3.27230410E-01  1.000000
 
  3 S  1.03072410E-01  1.000000
 


 Summary of "ao basis" -> "ao basis" (spherical)
 ------------------------------------------------------------------------------
       Tag                 Description            Shells   Functions and Types
 ---------------- ------------------------------  ------  ---------------------
 C                        ahlrichs vtz               9       15   6s3p
 H                        ahlrichs vtz               3        3   3s




 Summary of "ao basis" -> "ao basis" (spherical)
 ------------------------------------------------------------------------------
       Tag                 Description            Shells   Functions and Types
 ---------------- ------------------------------  ------  ---------------------
 C                        ahlrichs vtz               9       15   6s3p
 H                        ahlrichs vtz               3        3   3s


  Caching 1-el integrals 
 
            General Information
            -------------------
          SCF calculation type: DFT
          Wavefunction type:  spin polarized.
          No. of atoms     :    13
          No. of electrons :    39
           Alpha electrons :    20
            Beta electrons :    19
          Charge           :    -1
          Spin multiplicity:     2
          Use of symmetry is: off; symmetry adaption is: off
          Maximum number of iterations: 999
          This is a Direct SCF calculation.
          AO basis - number of functions:    99
                     number of shells:    69
          Convergence on energy requested:  1.00D-08
          Convergence on density requested:  1.00D-07
          Convergence on gradient requested:  1.00D-06
 
              XC Information
              --------------
                        PBE96 Method XC Functional
          PerdewBurkeErnzerhof Exchange Functional  1.000          
            Perdew 1991 LDA Correlation Functional  1.000 local    
           PerdewBurkeErnz. Correlation Functional  1.000 non-local
 
             Grid Information
             ----------------
          Grid used for XC integration:  fine      
          Radial quadrature: Mura-Knowles        
          Angular quadrature: Lebedev. 
          Tag              B.-S. Rad. Rad. Pts. Rad. Cut. Ang. Pts.
          ---              ---------- --------- --------- ---------
          C                   0.70       70          12.0       590
          H                   0.35       60          13.0       590
          Grid pruning is: on 
          Number of quadrature shells:   830
          Spatial weights used:  Erf1
 
          Convergence Information
          -----------------------
          Convergence aids based upon iterative change in 
          total energy or number of iterations. 
          Levelshifting, if invoked, occurs when the 
          HOMO/LUMO gap drops below (HL_TOL):  1.00D-02
          DIIS, if invoked, will attempt to extrapolate 
          using up to (NFOCK): 10 stored Fock matrices.

                    Damping( 0%)  Levelshifting(0.5)       DIIS
                  --------------- ------------------- ---------------
          dE  on:    start            ASAP                start   
          dE off:    2 iters        999 iters           999 iters 

 
      Screening Tolerance Information
      -------------------------------
          Density screening/tol_rho:  1.00D-12
          AO Gaussian exp screening on grid/accAOfunc:  18
          CD Gaussian exp screening on grid/accCDfunc:  20
          XC Gaussian exp screening on grid/accXCfunc:  20
          Schwarz screening/accCoul:  1.00D-12

      Dispersion Parameters
      ---------------------

           DFT-D3BJ Model   
          s6 scale factor  :        1.000000000000
          s8 scale factor  :        0.787500000000
          a1 parameter     :        0.428900000000
          a2 parameter     :        4.440700000000
              vdW contrib  :       -0.009440646147


 Forcing the number of linearly dependent vectors to be  0
 
      Superposition of Atomic Density Guess
      -------------------------------------
 
 Sum of atomic energies:        -192.35419923
   Time after variat. SCF:      0.2
   Time prior to 1st pass:      0.2

 Grid_pts file          = ./21_cPrCHCH2.gridpts.00
 Record size in doubles =  12289        No. of grid_pts per rec  =   3070
 Max. records in memory =     13        Max. recs in file   =  67550051

 Grid integrated density:      38.000014895039
 Requested integration accuracy:   0.10E-06

           Memory utilization after 1st SCF pass: 
           Heap Space remaining (MW):        0.00                 226
          Stack Space remaining (MW):      288.36           288357004

   convergence    iter        energy       DeltaE   RMS-Dens  Diis-err    time
 ---------------- ----- ----------------- --------- --------- ---------  ------
 d= 0,ls=0.0,diis     1   -195.7591941803 -3.59D+02  1.68D-02  1.52D+01     0.5
                                                     1.45D-02  1.37D+01
 Grid integrated density:      39.000004840469
 Requested integration accuracy:   0.10E-06
 d= 0,ls=0.0,diis     2   -194.5454809102  1.21D+00  1.40D-01  7.04D-01     0.9
                                                     1.09D-01  6.38D-01
 Grid integrated density:      39.000006715909
 Requested integration accuracy:   0.10E-06
 d= 0,ls=0.0,diis     3   -192.9143889673  1.63D+00  1.41D-01  2.73D+00     1.3
                                                     1.08D-01  2.56D+00
 Grid integrated density:      39.000007278876
 Requested integration accuracy:   0.10E-06
 d= 0,ls=0.0,diis     4   -194.8735270320 -1.96D+00  7.36D-02  1.17D-01     1.6
                                                     5.27D-03  1.13D-01
 Grid integrated density:      39.000004928163
 Requested integration accuracy:   0.10E-06
 d= 0,ls=0.0,diis     5   -194.8995889153 -2.61D-02  5.30D-02  8.60D-02     2.0
                                                     1.96D-03  7.88D-02
 Grid integrated density:      39.000004760093
 Requested integration accuracy:   0.10E-06
 d= 0,ls=0.0,diis     6   -194.9562583995 -5.67D-02  2.60D-02  3.21D-03     2.4
                                                     6.28D-04  2.82D-03
 Grid integrated density:      39.000004631745
 Requested integration accuracy:   0.10E-06
 d= 0,ls=0.0,diis     7   -194.9556161859  6.42D-04  1.68D-02  3.85D-03     2.8
                                                     4.11D-04  3.39D-03
 Grid integrated density:      39.000004662547
 Requested integration accuracy:   0.10E-06
 d= 0,ls=0.0,diis     8   -194.9586675636 -3.05D-03  3.67D-03  1.01D-04     3.2
                                                     1.33D-04  8.80D-05
 Grid integrated density:      39.000004630330
 Requested integration accuracy:   0.10E-06
 d= 0,ls=0.0,diis     9   -194.9587521593 -8.46D-05  8.01D-04  2.03D-05     3.6
                                                     3.37D-05  1.82D-05
 Grid integrated density:      39.000004629467
 Requested integration accuracy:   0.10E-06
 d= 0,ls=0.0,diis    10   -194.9587694761 -1.73D-05  3.74D-04  1.57D-06     4.0
                                                     1.91D-05  1.78D-06
 Grid integrated density:      39.000004630290
 Requested integration accuracy:   0.10E-06
 d= 0,ls=0.0,diis    11   -194.9587706376 -1.16D-06  2.36D-04  2.69D-07     4.4
                                                     4.45D-06  1.64D-07
 Grid integrated density:      39.000004630462
 Requested integration accuracy:   0.10E-06
 d= 0,ls=0.0,diis    12   -194.9587707693 -1.32D-07  6.56D-05  1.17D-07     4.8
                                                     2.15D-06  1.05D-07
 Grid integrated density:      39.000004630478
 Requested integration accuracy:   0.10E-06
 d= 0,ls=0.0,diis    13   -194.9587708746 -1.05D-07  4.08D-05  1.33D-08     5.1
                                                     1.07D-06  1.07D-08
 Grid integrated density:      39.000004630527
 Requested integration accuracy:   0.10E-06
 d= 0,ls=0.0,diis    14   -194.9587708843 -9.69D-09  7.50D-06  2.88D-09     5.5
                                                     3.85D-07  2.49D-09
 Grid integrated density:      39.000004630524
 Requested integration accuracy:   0.10E-06
 d= 0,ls=0.0,diis    15   -194.9587708865 -2.26D-09  3.21D-06  3.08D-10     5.9
                                                     1.54D-07  2.58D-10
 Grid integrated density:      39.000004630491
 Requested integration accuracy:   0.10E-06
 d= 0,ls=0.0,diis    16   -194.9587708868 -2.87D-10  5.20D-07  3.40D-11     6.3
                                                     5.50D-08  3.39D-11
 Grid integrated density:      39.000004630493
 Requested integration accuracy:   0.10E-06
 d= 0,ls=0.0,diis    17   -194.9587708868 -2.32D-11  9.38D-07  5.84D-12     6.7
                                                     2.69D-08  4.85D-12
 Grid integrated density:      39.000004630490
 Requested integration accuracy:   0.10E-06
 d= 0,ls=0.0,diis    18   -194.9587708868 -6.25D-12  2.04D-07  6.14D-13     7.1
                                                     6.64D-09  4.87D-13
 Grid integrated density:      39.000004630490
 Requested integration accuracy:   0.10E-06
 d= 0,ls=0.0,diis    19   -194.9587708868 -4.55D-13  2.13D-08  9.33D-15     7.5
                                                     9.83D-10  5.32D-15


         Total DFT energy =     -194.958770886832
      One electron energy =     -592.245918446193
           Coulomb energy =      263.660203591863
          Exchange energy =      -28.738538094339
       Correlation energy =       -1.252592768139
 Nuclear repulsion energy =      163.627515476123

    Dispersion correction =       -0.009440646147

 Numeric. integr. density =       39.000004630490

     Total iterative time =      7.3s


 
                    DFT Final Alpha Molecular Orbital Analysis
                    ------------------------------------------
 
 Vector    1  Occ=1.000000D+00  E=-9.721591D+00
              MO Center= -4.3D-01, -1.3D+00,  4.6D-01, r^2= 2.9D-02
   Bfn.  Coefficient  Atom+Function         Bfn.  Coefficient  Atom+Function  
  ----- ------------  ---------------      ----- ------------  ---------------
    56      0.424194   7 C  s                57      0.359375   7 C  s         
    55      0.308792   7 C  s                58      0.057592   7 C  s         
 
 Vector    2  Occ=1.000000D+00  E=-9.717576D+00
              MO Center= -4.0D-01,  2.2D-01,  5.9D-01, r^2= 2.9D-02
   Bfn.  Coefficient  Atom+Function         Bfn.  Coefficient  Atom+Function  
  ----- ------------  ---------------      ----- ------------  ---------------
    35      0.424293   4 C  s                36      0.359245   4 C  s         
    34      0.308801   4 C  s                37      0.057904   4 C  s         
 
 Vector    3  Occ=1.000000D+00  E=-9.711084D+00
              MO Center= -1.5D+00, -4.7D-01, -2.3D-01, r^2= 2.8D-02
   Bfn.  Coefficient  Atom+Function         Bfn.  Coefficient  Atom+Function  
  ----- ------------  ---------------      ----- ------------  ---------------
    71      0.424216   8 C  s                72      0.359421   8 C  s         
    70      0.308804   8 C  s                73      0.057601   8 C  s         
 
 Vector    4  Occ=1.000000D+00  E=-9.663573D+00
              MO Center=  6.2D-01,  1.1D+00, -1.0D-01, r^2= 2.9D-02
   Bfn.  Coefficient  Atom+Function         Bfn.  Coefficient  Atom+Function  
  ----- ------------  ---------------      ----- ------------  ---------------
     2      0.423932   1 C  s                 3      0.359300   1 C  s         
     1      0.308631   1 C  s                 4      0.058304   1 C  s         
 
 Vector    5  Occ=1.000000D+00  E=-9.652418D+00
              MO Center=  1.8D+00,  6.3D-01, -6.6D-01, r^2= 2.9D-02
   Bfn.  Coefficient  Atom+Function         Bfn.  Coefficient  Atom+Function  
  ----- ------------  ---------------      ----- ------------  ---------------
    17      0.423889   2 C  s                18      0.359423   2 C  s         
    16      0.308637   2 C  s                19      0.057855   2 C  s         
 
 Vector    6  Occ=1.000000D+00  E=-6.029022D-01
              MO Center= -7.0D-01, -4.6D-01,  2.6D-01, r^2= 1.2D+00
   Bfn.  Coefficient  Atom+Function         Bfn.  Coefficient  Atom+Function  
  ----- ------------  ---------------      ----- ------------  ---------------
    38      0.310536   4 C  s                59      0.297615   7 C  s         
    74      0.285113   8 C  s                 5      0.091810   1 C  s         
    36     -0.086138   4 C  s                57     -0.085420   7 C  s         
    72     -0.082383   8 C  s                62      0.077805   7 C  py        
    76      0.072264   8 C  px               35     -0.069846   4 C  s         
 
 Vector    7  Occ=1.000000D+00  E=-4.772319D-01
              MO Center=  8.7D-01,  7.0D-01, -2.6D-01, r^2= 1.9D+00
   Bfn.  Coefficient  Atom+Function         Bfn.  Coefficient  Atom+Function  
  ----- ------------  ---------------      ----- ------------  ---------------
     5      0.371436   1 C  s                20      0.323291   2 C  s         
    59     -0.129318   7 C  s                74     -0.126633   8 C  s         
     3     -0.111365   1 C  s                18     -0.099767   2 C  s         
    21      0.094103   2 C  s                39      0.091142   4 C  s         
     2     -0.087185   1 C  s                 4      0.082891   1 C  s         
 
 Vector    8  Occ=1.000000D+00  E=-3.734165D-01
              MO Center=  6.4D-02, -3.5D-01,  2.4D-01, r^2= 3.4D+00
   Bfn.  Coefficient  Atom+Function         Bfn.  Coefficient  Atom+Function  
  ----- ------------  ---------------      ----- ------------  ---------------
    59      0.330412   7 C  s                38     -0.278659   4 C  s         
    20      0.212632   2 C  s                 7      0.102945   1 C  px        
    60      0.095564   7 C  s                98      0.090109  13 H  s         
    41     -0.086056   4 C  py                5     -0.084949   1 C  s         
    95      0.084850  12 H  s                57     -0.083824   7 C  s         
 
 Vector    9  Occ=1.000000D+00  E=-3.624819D-01
              MO Center= -8.7D-01, -3.4D-01, -6.9D-02, r^2= 3.2D+00
   Bfn.  Coefficient  Atom+Function         Bfn.  Coefficient  Atom+Function  
  ----- ------------  ---------------      ----- ------------  ---------------
    74      0.392147   8 C  s                38     -0.210656   4 C  s         
    59     -0.192113   7 C  s                20      0.159462   2 C  s         
    75      0.113730   8 C  s                89      0.103435  10 H  s         
    72     -0.098505   8 C  s                88      0.094783  10 H  s         
    92      0.095022  11 H  s                91      0.089877  11 H  s         
 
 Vector   10  Occ=1.000000D+00  E=-2.914473D-01
              MO Center=  2.5D-01,  6.0D-02, -1.3D-01, r^2= 4.0D+00
   Bfn.  Coefficient  Atom+Function         Bfn.  Coefficient  Atom+Function  
  ----- ------------  ---------------      ----- ------------  ---------------
     5      0.228524   1 C  s                20     -0.213551   2 C  s         
    38     -0.167124   4 C  s                78     -0.124459   8 C  pz        
    62     -0.122066   7 C  py               59      0.101490   7 C  s         
    81     -0.095301   8 C  pz               40      0.093061   4 C  px        
    65     -0.088993   7 C  py               32      0.087022   3 H  s         
 
 Vector   11  Occ=1.000000D+00  E=-2.680752D-01
              MO Center= -7.1D-01, -4.7D-01,  3.9D-01, r^2= 3.1D+00
   Bfn.  Coefficient  Atom+Function         Bfn.  Coefficient  Atom+Function  
  ----- ------------  ---------------      ----- ------------  ---------------
    76     -0.169957   8 C  px               63      0.157421   7 C  pz        
    42      0.137366   4 C  pz               79     -0.135624   8 C  px        
    66      0.133383   7 C  pz               45      0.117654   4 C  pz        
    62     -0.116926   7 C  py               95      0.112276  12 H  s         
    94      0.107106  12 H  s                 8      0.103497   1 C  py        
 
 Vector   12  Occ=1.000000D+00  E=-2.310886D-01
              MO Center=  8.5D-02,  6.8D-02, -3.3D-02, r^2= 3.7D+00
   Bfn.  Coefficient  Atom+Function         Bfn.  Coefficient  Atom+Function  
  ----- ------------  ---------------      ----- ------------  ---------------
    23      0.139274   2 C  py               41     -0.139513   4 C  py        
    62      0.126127   7 C  py               76      0.124770   8 C  px        
    78      0.123725   8 C  pz               61     -0.118285   7 C  px        
     5      0.115052   1 C  s                 8      0.113273   1 C  py        
    26      0.101666   2 C  py               65      0.101264   7 C  py        
 
 Vector   13  Occ=1.000000D+00  E=-1.915204D-01
              MO Center=  8.1D-01,  5.8D-01, -3.8D-01, r^2= 3.9D+00
   Bfn.  Coefficient  Atom+Function         Bfn.  Coefficient  Atom+Function  
  ----- ------------  ---------------      ----- ------------  ---------------
    22      0.190203   2 C  px                8      0.174817   1 C  py        
    50      0.154765   5 H  s                11      0.130987   1 C  py        
    24     -0.129386   2 C  pz               25      0.128233   2 C  px        
    49      0.126556   5 H  s                23      0.104624   2 C  py        
     5     -0.102601   1 C  s                51      0.102632   5 H  s         
 
 Vector   14  Occ=1.000000D+00  E=-1.512838D-01
              MO Center= -9.6D-01, -9.2D-01,  2.7D-02, r^2= 2.7D+00
   Bfn.  Coefficient  Atom+Function         Bfn.  Coefficient  Atom+Function  
  ----- ------------  ---------------      ----- ------------  ---------------
    78     -0.201364   8 C  pz               63      0.200133   7 C  pz        
    81     -0.168296   8 C  pz               66      0.163275   7 C  pz        
    89      0.162088  10 H  s                95      0.161185  12 H  s         
    98     -0.155516  13 H  s                96      0.143464  12 H  s         
    92     -0.139934  11 H  s                93     -0.130563  11 H  s         
 
 Vector   15  Occ=1.000000D+00  E=-1.435111D-01
              MO Center=  4.9D-01,  2.8D-01,  3.1D-02, r^2= 3.4D+00
   Bfn.  Coefficient  Atom+Function         Bfn.  Coefficient  Atom+Function  
  ----- ------------  ---------------      ----- ------------  ---------------
     7      0.221794   1 C  px               23      0.177655   2 C  py        
    42      0.176448   4 C  pz               10      0.156829   1 C  px        
    22     -0.143351   2 C  px               45      0.138115   4 C  pz        
    26      0.133038   2 C  py               53     -0.133662   6 H  s         
    86      0.117696   9 H  s                54     -0.108248   6 H  s         
 
 Vector   16  Occ=1.000000D+00  E=-1.110155D-01
              MO Center=  4.9D-01,  3.5D-01, -1.6D-01, r^2= 4.2D+00
   Bfn.  Coefficient  Atom+Function         Bfn.  Coefficient  Atom+Function  
  ----- ------------  ---------------      ----- ------------  ---------------
    51      0.175718   5 H  s                39      0.169726   4 C  s         
    23      0.166934   2 C  py               50      0.158360   5 H  s         
    42     -0.153670   4 C  pz               45     -0.143648   4 C  pz        
    54     -0.143647   6 H  s                53     -0.141545   6 H  s         
     8     -0.135975   1 C  py               26      0.133855   2 C  py        
 
 Vector   17  Occ=1.000000D+00  E=-9.076115D-02
              MO Center= -3.9D-01, -7.4D-02,  3.5D-02, r^2= 3.0D+00
   Bfn.  Coefficient  Atom+Function         Bfn.  Coefficient  Atom+Function  
  ----- ------------  ---------------      ----- ------------  ---------------
    77      0.261591   8 C  py               40     -0.220209   4 C  px        
    80      0.204267   8 C  py               43     -0.197026   4 C  px        
     9     -0.171206   1 C  pz               60     -0.144686   7 C  s         
    12     -0.136088   1 C  pz               83      0.130588   8 C  py        
    61      0.126512   7 C  px               46     -0.121294   4 C  px        
 
 Vector   18  Occ=1.000000D+00  E=-7.606372D-02
              MO Center= -2.7D-01, -2.1D-01,  2.7D-01, r^2= 3.0D+00
   Bfn.  Coefficient  Atom+Function         Bfn.  Coefficient  Atom+Function  
  ----- ------------  ---------------      ----- ------------  ---------------
    41      0.215108   4 C  py               62     -0.186009   7 C  py        
    44      0.183623   4 C  py               65     -0.177861   7 C  py        
    61     -0.171553   7 C  px               33     -0.142561   3 H  s         
     8     -0.139236   1 C  py               32     -0.135015   3 H  s         
    64     -0.131880   7 C  px               63     -0.129184   7 C  pz        
 
 Vector   19  Occ=1.000000D+00  E=-1.532665D-02
              MO Center=  8.2D-01,  5.8D-01, -3.1D-01, r^2= 2.9D+00
   Bfn.  Coefficient  Atom+Function         Bfn.  Coefficient  Atom+Function  
  ----- ------------  ---------------      ----- ------------  ---------------
    24      0.248894   2 C  pz               27      0.216857   2 C  pz        
     9      0.202997   1 C  pz               12      0.184277   1 C  pz        
    30      0.182473   2 C  pz               75      0.183125   8 C  s         
    77      0.138351   8 C  py                7      0.128603   1 C  px        
    15      0.121912   1 C  pz               22      0.121720   2 C  px        
 
 Vector   20  Occ=1.000000D+00  E= 1.670505D-01
              MO Center=  1.5D-01,  3.8D-01,  5.6D-02, r^2= 6.4D+00
   Bfn.  Coefficient  Atom+Function         Bfn.  Coefficient  Atom+Function  
  ----- ------------  ---------------      ----- ------------  ---------------
    75      1.035677   8 C  s                87     -0.784230   9 H  s         
    93     -0.765920  11 H  s                30     -0.485162   2 C  pz        
    96     -0.486560  12 H  s                48      0.355486   4 C  pz        
    15      0.346362   1 C  pz               60      0.306756   7 C  s         
    13      0.304529   1 C  px               28     -0.298937   2 C  px        
 
 Vector   21  Occ=0.000000D+00  E= 1.807934D-01
              MO Center= -6.2D-01, -3.6D-01,  8.6D-01, r^2= 7.4D+00
   Bfn.  Coefficient  Atom+Function         Bfn.  Coefficient  Atom+Function  
  ----- ------------  ---------------      ----- ------------  ---------------
    60      1.470007   7 C  s                87     -1.211870   9 H  s         
    96     -1.167233  12 H  s                93     -0.977737  11 H  s         
    75      0.752740   8 C  s                48      0.719842   4 C  pz        
    39      0.484413   4 C  s                15     -0.469898   1 C  pz        
     6      0.430247   1 C  s                47      0.425767   4 C  py        
 
 Vector   22  Occ=0.000000D+00  E= 1.970431D-01
              MO Center=  2.6D-01, -9.4D-01, -1.4D-01, r^2= 7.3D+00
   Bfn.  Coefficient  Atom+Function         Bfn.  Coefficient  Atom+Function  
  ----- ------------  ---------------      ----- ------------  ---------------
    60      1.925668   7 C  s                39     -1.329760   4 C  s         
    99     -1.320731  13 H  s                87      0.991098   9 H  s         
    21      0.856534   2 C  s                54     -0.815346   6 H  s         
    90     -0.688389  10 H  s                 6     -0.528645   1 C  s         
    33      0.490680   3 H  s                48     -0.390999   4 C  pz        
 
 Vector   23  Occ=0.000000D+00  E= 2.087635D-01
              MO Center= -1.4D+00, -6.2D-01, -2.2D-01, r^2= 7.1D+00
   Bfn.  Coefficient  Atom+Function         Bfn.  Coefficient  Atom+Function  
  ----- ------------  ---------------      ----- ------------  ---------------
    75      2.755582   8 C  s                60     -1.545513   7 C  s         
    90     -1.214667  10 H  s                96      0.994010  12 H  s         
    93     -0.985140  11 H  s                39     -0.888581   4 C  s         
    67      0.704912   7 C  px               87      0.681438   9 H  s         
    13     -0.383157   1 C  px               54      0.360172   6 H  s         
 
 Vector   24  Occ=0.000000D+00  E= 2.142352D-01
              MO Center=  1.0D+00,  1.5D+00, -5.5D-01, r^2= 8.5D+00
   Bfn.  Coefficient  Atom+Function         Bfn.  Coefficient  Atom+Function  
  ----- ------------  ---------------      ----- ------------  ---------------
    21      2.122763   2 C  s                33     -1.902912   3 H  s         
    51     -1.414182   5 H  s                14      1.291811   1 C  py        
    39      0.907155   4 C  s                96      0.872168  12 H  s         
    60     -0.742149   7 C  s                75     -0.676555   8 C  s         
    93      0.663875  11 H  s                13     -0.653469   1 C  px        
 
 Vector   25  Occ=0.000000D+00  E= 2.413852D-01
              MO Center= -5.7D-02, -1.5D-01,  4.9D-01, r^2= 9.4D+00
   Bfn.  Coefficient  Atom+Function         Bfn.  Coefficient  Atom+Function  
  ----- ------------  ---------------      ----- ------------  ---------------
    39      2.292690   4 C  s                33      1.463920   3 H  s         
    96      1.446662  12 H  s                 6     -1.432106   1 C  s         
    87     -1.278791   9 H  s                60     -1.154536   7 C  s         
    69     -1.078513   7 C  pz               21      0.917827   2 C  s         
    54     -0.816870   6 H  s                99     -0.724555  13 H  s         
 
 Vector   26  Occ=0.000000D+00  E= 2.506750D-01
              MO Center= -3.7D-01,  3.1D-01, -5.0D-01, r^2= 1.1D+01
   Bfn.  Coefficient  Atom+Function         Bfn.  Coefficient  Atom+Function  
  ----- ------------  ---------------      ----- ------------  ---------------
    93      2.177626  11 H  s                90     -1.973440  10 H  s         
    21     -1.866492   2 C  s                51      1.654599   5 H  s         
    84     -1.635202   8 C  pz               39      1.534037   4 C  s         
    87     -1.305605   9 H  s                82      1.043089   8 C  px        
    29     -0.891114   2 C  py                6      0.763286   1 C  s         
 
 Vector   27  Occ=0.000000D+00  E= 2.639168D-01
              MO Center=  3.9D-01,  2.1D-01, -3.4D-01, r^2= 1.1D+01
   Bfn.  Coefficient  Atom+Function         Bfn.  Coefficient  Atom+Function  
  ----- ------------  ---------------      ----- ------------  ---------------
    33     -2.359160   3 H  s                14      2.293924   1 C  py        
    51      2.210021   5 H  s                29     -2.143385   2 C  py        
    96      1.816909  12 H  s                54     -1.741599   6 H  s         
    69     -1.628302   7 C  pz               90      1.521927  10 H  s         
    84      1.421709   8 C  pz                6      1.363021   1 C  s         
 
 Vector   28  Occ=0.000000D+00  E= 2.717625D-01
              MO Center= -5.7D-01, -5.0D-01, -9.4D-02, r^2= 5.3D+00
   Bfn.  Coefficient  Atom+Function         Bfn.  Coefficient  Atom+Function  
  ----- ------------  ---------------      ----- ------------  ---------------
    83     -1.290251   8 C  py               67      1.198118   7 C  px        
    90      1.058228  10 H  s                51      0.856425   5 H  s         
    46     -0.819017   4 C  px               48     -0.673760   4 C  pz        
    54     -0.632607   6 H  s                99     -0.617705  13 H  s         
    29     -0.568541   2 C  py               47      0.552397   4 C  py        
 
 Vector   29  Occ=0.000000D+00  E= 2.940784D-01
              MO Center= -1.5D-01, -5.9D-01,  2.8D-01, r^2= 9.1D+00
   Bfn.  Coefficient  Atom+Function         Bfn.  Coefficient  Atom+Function  
  ----- ------------  ---------------      ----- ------------  ---------------
    87      2.684947   9 H  s                48     -2.097068   4 C  pz        
    47     -2.065757   4 C  py               39      2.012703   4 C  s         
    96     -1.900705  12 H  s                14      1.823145   1 C  py        
    54     -1.660158   6 H  s                60     -1.506497   7 C  s         
    68     -1.488171   7 C  py               51      1.473307   5 H  s         
 
 Vector   30  Occ=0.000000D+00  E= 3.043682D-01
              MO Center= -3.6D-01, -6.7D-01, -3.3D-01, r^2= 8.8D+00
   Bfn.  Coefficient  Atom+Function         Bfn.  Coefficient  Atom+Function  
  ----- ------------  ---------------      ----- ------------  ---------------
    82      2.583325   8 C  px               93      2.190212  11 H  s         
    54     -1.758058   6 H  s                99      1.648193  13 H  s         
    87     -1.497807   9 H  s                48      1.197317   4 C  pz        
    69      1.196832   7 C  pz               21      1.140953   2 C  s         
    29     -1.139684   2 C  py               51      1.055087   5 H  s         
 
 Vector   31  Occ=0.000000D+00  E= 3.196333D-01
              MO Center= -2.4D-02, -7.4D-01,  5.2D-01, r^2= 6.2D+00
   Bfn.  Coefficient  Atom+Function         Bfn.  Coefficient  Atom+Function  
  ----- ------------  ---------------      ----- ------------  ---------------
    68      2.201665   7 C  py               75     -1.982213   8 C  s         
    46     -1.713524   4 C  px               14     -1.442283   1 C  py        
    82     -1.427732   8 C  px               96      1.371627  12 H  s         
     6      1.327526   1 C  s                99      1.308929  13 H  s         
    90     -1.275842  10 H  s                93     -1.219837  11 H  s         
 
 Vector   32  Occ=0.000000D+00  E= 3.322678D-01
              MO Center= -4.7D-01,  5.2D-02, -3.3D-01, r^2= 8.0D+00
   Bfn.  Coefficient  Atom+Function         Bfn.  Coefficient  Atom+Function  
  ----- ------------  ---------------      ----- ------------  ---------------
    13      1.618611   1 C  px               51     -1.361687   5 H  s         
    21     -1.223811   2 C  s                84      1.198552   8 C  pz        
    90      1.108170  10 H  s                39      1.067482   4 C  s         
    82      1.069591   8 C  px               28      1.007148   2 C  px        
    48     -0.918595   4 C  pz               60     -0.879559   7 C  s         
 
 Vector   33  Occ=0.000000D+00  E= 3.494654D-01
              MO Center=  1.4D+00,  4.5D-01, -4.5D-01, r^2= 7.5D+00
   Bfn.  Coefficient  Atom+Function         Bfn.  Coefficient  Atom+Function  
  ----- ------------  ---------------      ----- ------------  ---------------
     6      4.226316   1 C  s                14     -3.346918   1 C  py        
    28      2.615129   2 C  px               33      2.622578   3 H  s         
    39     -1.902490   4 C  s                48      1.793347   4 C  pz        
    46     -1.722574   4 C  px               21     -1.493756   2 C  s         
    30     -1.371817   2 C  pz               51     -1.347752   5 H  s         
 
 Vector   34  Occ=0.000000D+00  E= 3.890048D-01
              MO Center= -1.7D-01, -1.4D-01,  5.8D-02, r^2= 7.0D+00
   Bfn.  Coefficient  Atom+Function         Bfn.  Coefficient  Atom+Function  
  ----- ------------  ---------------      ----- ------------  ---------------
    47      2.209574   4 C  py                6     -1.674983   1 C  s         
    46      1.586710   4 C  px               14      1.489330   1 C  py        
    29     -1.390072   2 C  py               13      1.251041   1 C  px        
    33     -1.206738   3 H  s                54     -1.062106   6 H  s         
    39      1.026760   4 C  s                84      1.023829   8 C  pz        
 
 Vector   35  Occ=0.000000D+00  E= 3.942840D-01
              MO Center=  2.2D-01, -2.4D-02,  4.6D-01, r^2= 7.6D+00
   Bfn.  Coefficient  Atom+Function         Bfn.  Coefficient  Atom+Function  
  ----- ------------  ---------------      ----- ------------  ---------------
    47      2.853458   4 C  py               99      2.544939  13 H  s         
    54     -2.436017   6 H  s                29     -2.197420   2 C  py        
    13      2.152052   1 C  px               68      2.062270   7 C  py        
    84     -1.918216   8 C  pz               46      1.831081   4 C  px        
    67     -1.757092   7 C  px               28      1.399997   2 C  px        
 
 Vector   36  Occ=0.000000D+00  E= 4.067390D-01
              MO Center=  1.7D-01,  1.7D-01,  6.1D-02, r^2= 8.0D+00
   Bfn.  Coefficient  Atom+Function         Bfn.  Coefficient  Atom+Function  
  ----- ------------  ---------------      ----- ------------  ---------------
    84      2.009760   8 C  pz                6     -1.632897   1 C  s         
    90      1.267513  10 H  s                30      1.065000   2 C  pz        
    13     -1.044247   1 C  px               21      0.983767   2 C  s         
    48     -0.824631   4 C  pz               39     -0.786151   4 C  s         
    46      0.774046   4 C  px               54      0.684037   6 H  s         
 
 Vector   37  Occ=0.000000D+00  E= 4.294868D-01
              MO Center=  3.1D-01,  6.6D-01,  1.7D-01, r^2= 7.7D+00
   Bfn.  Coefficient  Atom+Function         Bfn.  Coefficient  Atom+Function  
  ----- ------------  ---------------      ----- ------------  ---------------
    13      3.468481   1 C  px               21     -1.771497   2 C  s         
    39      1.547220   4 C  s                28      1.450329   2 C  px        
     6      1.437052   1 C  s                54     -1.439272   6 H  s         
    15     -0.863542   1 C  pz               29     -0.849165   2 C  py        
    46     -0.816485   4 C  px               75     -0.713957   8 C  s         
 
 Vector   38  Occ=0.000000D+00  E= 4.410852D-01
              MO Center= -4.3D-01, -4.8D-01, -2.0D-01, r^2= 6.4D+00
   Bfn.  Coefficient  Atom+Function         Bfn.  Coefficient  Atom+Function  
  ----- ------------  ---------------      ----- ------------  ---------------
    48     -2.931787   4 C  pz               46      2.891724   4 C  px        
    87      2.308350   9 H  s                69      2.274440   7 C  pz        
    67     -2.163342   7 C  px               99      2.020302  13 H  s         
     6     -1.322538   1 C  s                13      1.225451   1 C  px        
    96     -1.178620  12 H  s                15     -1.103808   1 C  pz        
 
 Vector   39  Occ=0.000000D+00  E= 4.703426D-01
              MO Center=  6.1D-01,  6.7D-01, -1.6D-01, r^2= 6.7D+00
   Bfn.  Coefficient  Atom+Function         Bfn.  Coefficient  Atom+Function  
  ----- ------------  ---------------      ----- ------------  ---------------
    48      3.482356   4 C  pz               14     -2.462442   1 C  py        
    15     -2.416161   1 C  pz               47      1.924515   4 C  py        
    87     -1.908077   9 H  s                 6      1.453787   1 C  s         
    33      1.405491   3 H  s                60      1.410562   7 C  s         
    21     -1.275365   2 C  s                46     -1.179704   4 C  px        
 
 Vector   40  Occ=0.000000D+00  E= 4.836620D-01
              MO Center= -5.3D-02, -2.6D-01,  6.8D-02, r^2= 7.0D+00
   Bfn.  Coefficient  Atom+Function         Bfn.  Coefficient  Atom+Function  
  ----- ------------  ---------------      ----- ------------  ---------------
    48      3.350228   4 C  pz               46     -2.627109   4 C  px        
    84     -2.500975   8 C  pz               54      2.482470   6 H  s         
    99     -2.352412  13 H  s                82      2.191959   8 C  px        
    90     -2.137774  10 H  s                93      2.077603  11 H  s         
    15      1.863661   1 C  pz               29      1.812624   2 C  py        
 
 Vector   41  Occ=0.000000D+00  E= 5.089928D-01
              MO Center= -1.6D-01, -1.1D-01, -5.5D-02, r^2= 6.3D+00
   Bfn.  Coefficient  Atom+Function         Bfn.  Coefficient  Atom+Function  
  ----- ------------  ---------------      ----- ------------  ---------------
    47      3.780963   4 C  py               13      3.277967   1 C  px        
    21     -1.858280   2 C  s                14     -1.743692   1 C  py        
    60      1.728056   7 C  s                15     -1.604454   1 C  pz        
    83     -1.273570   8 C  py               48     -1.208171   4 C  pz        
    68      1.071506   7 C  py               67      0.894443   7 C  px        
 
 Vector   42  Occ=0.000000D+00  E= 5.177735D-01
              MO Center= -1.4D-01,  1.2D-01,  3.6D-02, r^2= 5.4D+00
   Bfn.  Coefficient  Atom+Function         Bfn.  Coefficient  Atom+Function  
  ----- ------------  ---------------      ----- ------------  ---------------
    47     -1.319979   4 C  py               83      1.297441   8 C  py        
    67     -1.263360   7 C  px               46      1.235412   4 C  px        
    96     -0.811429  12 H  s                48     -0.737850   4 C  pz        
    68     -0.731675   7 C  py               33     -0.716827   3 H  s         
    54      0.711483   6 H  s                14      0.684557   1 C  py        
 
 Vector   43  Occ=0.000000D+00  E= 5.292263D-01
              MO Center= -1.9D-01, -1.4D-01,  2.9D-01, r^2= 6.6D+00
   Bfn.  Coefficient  Atom+Function         Bfn.  Coefficient  Atom+Function  
  ----- ------------  ---------------      ----- ------------  ---------------
    96     -2.063412  12 H  s                69      1.925122   7 C  pz        
    87     -1.832217   9 H  s                51      1.704909   5 H  s         
    48      1.589711   4 C  pz               99      1.399714  13 H  s         
    14     -1.179842   1 C  py               28     -1.083874   2 C  px        
    29     -1.085674   2 C  py               46     -1.077829   4 C  px        
 
 Vector   44  Occ=0.000000D+00  E= 5.368138D-01
              MO Center= -5.0D-01, -4.5D-01,  2.2D-01, r^2= 4.9D+00
   Bfn.  Coefficient  Atom+Function         Bfn.  Coefficient  Atom+Function  
  ----- ------------  ---------------      ----- ------------  ---------------
    69      2.438114   7 C  pz               96     -2.043256  12 H  s         
    29      1.941367   2 C  py               54      1.637084   6 H  s         
    14     -1.342287   1 C  py               60     -1.224925   7 C  s         
    47     -1.136951   4 C  py               68     -1.131340   7 C  py        
    83     -0.994644   8 C  py               48     -0.978012   4 C  pz        
 
 Vector   45  Occ=0.000000D+00  E= 5.468857D-01
              MO Center= -5.8D-01, -2.3D-01,  1.0D-01, r^2= 4.9D+00
   Bfn.  Coefficient  Atom+Function         Bfn.  Coefficient  Atom+Function  
  ----- ------------  ---------------      ----- ------------  ---------------
    14      2.661769   1 C  py               29     -1.892547   2 C  py        
    33     -1.717893   3 H  s                46      1.370145   4 C  px        
    54     -1.271094   6 H  s                15     -1.259082   1 C  pz        
    82      1.255044   8 C  px               87      1.107309   9 H  s         
    93      1.112523  11 H  s                51      1.060424   5 H  s         
 
 Vector   46  Occ=0.000000D+00  E= 5.595385D-01
              MO Center= -3.7D-02, -3.0D-02,  2.7D-01, r^2= 5.5D+00
   Bfn.  Coefficient  Atom+Function         Bfn.  Coefficient  Atom+Function  
  ----- ------------  ---------------      ----- ------------  ---------------
    29      2.749085   2 C  py               39     -2.582324   4 C  s         
    14     -2.075670   1 C  py               46     -2.005028   4 C  px        
    54      1.886482   6 H  s                69      1.866719   7 C  pz        
    84     -1.479534   8 C  pz               47      1.459332   4 C  py        
    87     -1.429092   9 H  s                99      1.397816  13 H  s         
 
 Vector   47  Occ=0.000000D+00  E= 5.796079D-01
              MO Center=  3.8D-01,  3.7D-01, -1.1D-01, r^2= 7.5D+00
   Bfn.  Coefficient  Atom+Function         Bfn.  Coefficient  Atom+Function  
  ----- ------------  ---------------      ----- ------------  ---------------
    48      3.090517   4 C  pz               29      2.838856   2 C  py        
    47      2.799509   4 C  py               87     -2.608901   9 H  s         
    51     -2.592035   5 H  s                96      2.484419  12 H  s         
    69     -2.391356   7 C  pz               84      2.375678   8 C  pz        
    90      1.951810  10 H  s                54      1.935646   6 H  s         
 
 Vector   48  Occ=0.000000D+00  E= 5.833324D-01
              MO Center= -1.9D-01,  4.0D-01,  1.3D-01, r^2= 6.4D+00
   Bfn.  Coefficient  Atom+Function         Bfn.  Coefficient  Atom+Function  
  ----- ------------  ---------------      ----- ------------  ---------------
    14      4.814615   1 C  py               33     -3.807963   3 H  s         
    48     -3.058009   4 C  pz               21      2.907083   2 C  s         
    87      2.231511   9 H  s                47     -1.875869   4 C  py        
    93      1.691590  11 H  s                39      1.631068   4 C  s         
    69      1.622362   7 C  pz               82      1.437046   8 C  px        
 
 Vector   49  Occ=0.000000D+00  E= 6.098570D-01
              MO Center=  2.0D-01,  6.1D-02, -4.4D-01, r^2= 6.4D+00
   Bfn.  Coefficient  Atom+Function         Bfn.  Coefficient  Atom+Function  
  ----- ------------  ---------------      ----- ------------  ---------------
    54      2.673420   6 H  s                84     -2.327167   8 C  pz        
    29      2.280913   2 C  py               90     -2.288846  10 H  s         
    14     -2.079697   1 C  py                6     -1.782273   1 C  s         
    13     -1.389521   1 C  px               28     -1.223303   2 C  px        
    15      1.195172   1 C  pz               96     -1.181547  12 H  s         
 
 Vector   50  Occ=0.000000D+00  E= 6.197124D-01
              MO Center= -6.5D-01,  3.3D-01,  5.1D-01, r^2= 6.9D+00
   Bfn.  Coefficient  Atom+Function         Bfn.  Coefficient  Atom+Function  
  ----- ------------  ---------------      ----- ------------  ---------------
    14      3.549341   1 C  py               29     -3.108483   2 C  py        
    93      2.773800  11 H  s                51      2.756824   5 H  s         
    87     -2.746922   9 H  s                33     -2.490974   3 H  s         
    82      2.407378   8 C  px               39      2.276019   4 C  s         
    48      2.236317   4 C  pz               28     -1.585196   2 C  px        
 
 Vector   51  Occ=0.000000D+00  E= 6.300179D-01
              MO Center=  3.8D-02,  5.0D-02, -2.3D-01, r^2= 8.2D+00
   Bfn.  Coefficient  Atom+Function         Bfn.  Coefficient  Atom+Function  
  ----- ------------  ---------------      ----- ------------  ---------------
    14      3.831145   1 C  py               33     -2.933534   3 H  s         
    99     -2.849192  13 H  s                13     -2.666140   1 C  px        
    51      2.643329   5 H  s                21      2.614900   2 C  s         
    47     -2.599666   4 C  py               69     -2.461287   7 C  pz        
    28     -2.276929   2 C  px               93     -2.183379  11 H  s         
 
 Vector   52  Occ=0.000000D+00  E= 6.322274D-01
              MO Center= -8.6D-01, -6.9D-01,  3.1D-01, r^2= 5.7D+00
   Bfn.  Coefficient  Atom+Function         Bfn.  Coefficient  Atom+Function  
  ----- ------------  ---------------      ----- ------------  ---------------
    90      2.291721  10 H  s                99     -2.128358  13 H  s         
    68     -1.946128   7 C  py               47     -1.663065   4 C  py        
    96     -1.650488  12 H  s                84      1.611014   8 C  pz        
    14      1.585978   1 C  py               75     -1.231584   8 C  s         
    13     -1.194577   1 C  px               21      1.196017   2 C  s         
 
 Vector   53  Occ=0.000000D+00  E= 6.607231D-01
              MO Center= -4.8D-01, -6.3D-02, -7.9D-02, r^2= 6.3D+00
   Bfn.  Coefficient  Atom+Function         Bfn.  Coefficient  Atom+Function  
  ----- ------------  ---------------      ----- ------------  ---------------
    75      3.378390   8 C  s                 6      2.817513   1 C  s         
    74     -1.925419   8 C  s                60      1.899433   7 C  s         
    33     -1.699003   3 H  s                14      1.369487   1 C  py        
    59     -1.285087   7 C  s                99     -1.141077  13 H  s         
    93     -1.016127  11 H  s                67      0.845571   7 C  px        
 
 Vector   54  Occ=0.000000D+00  E= 6.819757D-01
              MO Center=  6.6D-01,  2.7D-02, -2.8D-01, r^2= 6.6D+00
   Bfn.  Coefficient  Atom+Function         Bfn.  Coefficient  Atom+Function  
  ----- ------------  ---------------      ----- ------------  ---------------
    29      4.429741   2 C  py               21      3.777621   2 C  s         
    14     -3.243575   1 C  py               51     -3.093748   5 H  s         
    54      2.529271   6 H  s                15      2.502386   1 C  pz        
    13     -2.304838   1 C  px               99     -2.033307  13 H  s         
    33      1.951370   3 H  s                47     -1.845204   4 C  py        
 
 Vector   55  Occ=0.000000D+00  E= 7.019248D-01
              MO Center=  1.4D+00,  1.0D-01, -4.8D-01, r^2= 4.9D+00
   Bfn.  Coefficient  Atom+Function         Bfn.  Coefficient  Atom+Function  
  ----- ------------  ---------------      ----- ------------  ---------------
    54      4.103644   6 H  s                21     -3.719903   2 C  s         
    29      3.519731   2 C  py               14     -2.993125   1 C  py        
    39     -2.212446   4 C  s                99     -2.087809  13 H  s         
    33      1.738871   3 H  s                20      1.602263   2 C  s         
    47     -1.585711   4 C  py               15      1.536466   1 C  pz        
 
 Vector   56  Occ=0.000000D+00  E= 7.828696D-01
              MO Center=  4.7D-01,  1.1D-03, -8.1D-03, r^2= 6.1D+00
   Bfn.  Coefficient  Atom+Function         Bfn.  Coefficient  Atom+Function  
  ----- ------------  ---------------      ----- ------------  ---------------
    39     -4.221426   4 C  s                21      4.040455   2 C  s         
    29      3.756395   2 C  py               13     -3.382454   1 C  px        
    84      3.089303   8 C  pz               69     -3.028793   7 C  pz        
     6     -2.876027   1 C  s                46      2.513797   4 C  px        
    60      2.515681   7 C  s                82     -2.026972   8 C  px        
 
 Vector   57  Occ=0.000000D+00  E= 7.904717D-01
              MO Center= -2.1D-01,  1.6D-01,  2.5D-01, r^2= 6.6D+00
   Bfn.  Coefficient  Atom+Function         Bfn.  Coefficient  Atom+Function  
  ----- ------------  ---------------      ----- ------------  ---------------
    60      6.587667   7 C  s                47      6.469274   4 C  py        
    13      6.081003   1 C  px                6     -5.326921   1 C  s         
    21     -4.501563   2 C  s                69      3.647996   7 C  pz        
    15     -3.348773   1 C  pz               29     -3.339923   2 C  py        
    67     -2.481527   7 C  px               82      2.423211   8 C  px        
 
 Vector   58  Occ=0.000000D+00  E= 8.004959D-01
              MO Center=  8.5D-01,  8.7D-01, -3.5D-01, r^2= 4.7D+00
   Bfn.  Coefficient  Atom+Function         Bfn.  Coefficient  Atom+Function  
  ----- ------------  ---------------      ----- ------------  ---------------
    14      5.458135   1 C  py               29     -4.678048   2 C  py        
    75      2.474061   8 C  s                15     -2.308560   1 C  pz        
    33     -2.306890   3 H  s                54     -2.189496   6 H  s         
    39      2.131758   4 C  s                13      1.843756   1 C  px        
     6      1.770497   1 C  s                21     -1.686054   2 C  s         
 
 Vector   59  Occ=0.000000D+00  E= 8.321458D-01
              MO Center=  1.5D-01,  1.6D-01, -2.1D-01, r^2= 5.9D+00
   Bfn.  Coefficient  Atom+Function         Bfn.  Coefficient  Atom+Function  
  ----- ------------  ---------------      ----- ------------  ---------------
    75      6.398246   8 C  s                14     -4.718123   1 C  py        
    21     -4.615413   2 C  s                39     -4.380806   4 C  s         
     6      3.788068   1 C  s                60     -3.551131   7 C  s         
    33      2.693544   3 H  s                28      2.402681   2 C  px        
    29      1.767751   2 C  py               30     -1.685713   2 C  pz        
 
 Vector   60  Occ=0.000000D+00  E= 8.612987D-01
              MO Center=  1.9D-01,  2.7D-01,  7.0D-02, r^2= 5.6D+00
   Bfn.  Coefficient  Atom+Function         Bfn.  Coefficient  Atom+Function  
  ----- ------------  ---------------      ----- ------------  ---------------
    39      8.544924   4 C  s                75     -6.114573   8 C  s         
    21     -5.918715   2 C  s                13      3.769636   1 C  px        
    38     -2.872863   4 C  s                48     -2.821772   4 C  pz        
    28      2.535657   2 C  px               20      1.887175   2 C  s         
     6      1.651913   1 C  s                15     -1.588399   1 C  pz        
 
 Vector   61  Occ=0.000000D+00  E= 8.994258D-01
              MO Center=  1.5D-02,  1.0D-01,  2.3D-01, r^2= 6.4D+00
   Bfn.  Coefficient  Atom+Function         Bfn.  Coefficient  Atom+Function  
  ----- ------------  ---------------      ----- ------------  ---------------
    39    -11.011833   4 C  s                 6     10.746449   1 C  s         
    60      8.888977   7 C  s                21     -7.011765   2 C  s         
    14     -6.599307   1 C  py               46     -3.138131   4 C  px        
    33      2.914954   3 H  s                47      2.888111   4 C  py        
    48      2.892048   4 C  pz               75     -2.850279   8 C  s         
 
 Vector   62  Occ=0.000000D+00  E= 1.535556D+00
              MO Center= -7.0D-01, -6.1D-01,  1.9D-01, r^2= 3.1D+00
   Bfn.  Coefficient  Atom+Function         Bfn.  Coefficient  Atom+Function  
  ----- ------------  ---------------      ----- ------------  ---------------
    60      1.798019   7 C  s                65      1.616943   7 C  py        
    79     -1.306440   8 C  px               64     -1.261610   7 C  px        
    14     -1.199795   1 C  py               75     -1.196890   8 C  s         
    80      1.040972   8 C  py                6      1.031706   1 C  s         
    39     -1.010614   4 C  s                81     -0.941902   8 C  pz        
 
 Vector   63  Occ=0.000000D+00  E= 1.551770D+00
              MO Center= -5.5D-01, -1.4D-01,  1.6D-01, r^2= 3.3D+00
   Bfn.  Coefficient  Atom+Function         Bfn.  Coefficient  Atom+Function  
  ----- ------------  ---------------      ----- ------------  ---------------
    39      2.027579   4 C  s                44     -1.775903   4 C  py        
    43     -1.483735   4 C  px               46      1.323885   4 C  px        
    75     -1.178881   8 C  s                79     -1.140002   8 C  px        
    84      1.070851   8 C  pz               65     -1.013141   7 C  py        
    47      0.965138   4 C  py               81     -0.926741   8 C  pz        
 
 Vector   64  Occ=0.000000D+00  E= 1.587096D+00
              MO Center=  5.1D-01,  3.2D-01, -7.1D-02, r^2= 3.7D+00
   Bfn.  Coefficient  Atom+Function         Bfn.  Coefficient  Atom+Function  
  ----- ------------  ---------------      ----- ------------  ---------------
    39      1.399045   4 C  s                10      1.293537   1 C  px        
    28     -0.929534   2 C  px               45     -0.895354   4 C  pz        
    25      0.853177   2 C  px               69      0.814180   7 C  pz        
    14      0.803530   1 C  py               87     -0.755870   9 H  s         
    51      0.704893   5 H  s                29     -0.687335   2 C  py        
 
 Vector   65  Occ=0.000000D+00  E= 1.599694D+00
              MO Center=  9.2D-01,  5.7D-01, -3.0D-01, r^2= 3.0D+00
   Bfn.  Coefficient  Atom+Function         Bfn.  Coefficient  Atom+Function  
  ----- ------------  ---------------      ----- ------------  ---------------
    27      1.302233   2 C  pz               12      1.114588   1 C  pz        
    10     -0.994533   1 C  px               87      0.959094   9 H  s         
    30     -0.908160   2 C  pz               24     -0.882083   2 C  pz        
    51     -0.815580   5 H  s                48     -0.764612   4 C  pz        
    39     -0.727610   4 C  s                75      0.700604   8 C  s         
 
 Vector   66  Occ=0.000000D+00  E= 1.633512D+00
              MO Center= -1.1D-02,  1.1D-01,  6.3D-02, r^2= 3.7D+00
   Bfn.  Coefficient  Atom+Function         Bfn.  Coefficient  Atom+Function  
  ----- ------------  ---------------      ----- ------------  ---------------
    64      0.974564   7 C  px               83      0.969493   8 C  py        
    48      0.949827   4 C  pz               80     -0.920961   8 C  py        
    10     -0.840341   1 C  px               67     -0.840008   7 C  px        
    33      0.817357   3 H  s                45     -0.735823   4 C  pz        
    11      0.687059   1 C  py               26      0.673176   2 C  py        
 
 Vector   67  Occ=0.000000D+00  E= 1.649378D+00
              MO Center=  2.8D-02,  2.9D-01, -2.6D-01, r^2= 4.2D+00
   Bfn.  Coefficient  Atom+Function         Bfn.  Coefficient  Atom+Function  
  ----- ------------  ---------------      ----- ------------  ---------------
    12      1.224040   1 C  pz               80     -1.169414   8 C  py        
    39      1.133267   4 C  s                68     -0.888819   7 C  py        
    60     -0.804971   7 C  s                96     -0.801908  12 H  s         
     9     -0.776518   1 C  pz               27     -0.777300   2 C  pz        
    15     -0.725701   1 C  pz                6     -0.710749   1 C  s         
 
 Vector   68  Occ=0.000000D+00  E= 1.662189D+00
              MO Center=  6.4D-01, -1.8D-01, -8.3D-02, r^2= 4.3D+00
   Bfn.  Coefficient  Atom+Function         Bfn.  Coefficient  Atom+Function  
  ----- ------------  ---------------      ----- ------------  ---------------
    39      2.499445   4 C  s                60     -1.904704   7 C  s         
    25     -1.840954   2 C  px                6     -1.592301   1 C  s         
    14      1.578673   1 C  py               21      1.566486   2 C  s         
    54     -1.565350   6 H  s                29     -1.549033   2 C  py        
    65     -1.537131   7 C  py               48     -1.131087   4 C  pz        
 
 Vector   69  Occ=0.000000D+00  E= 1.695206D+00
              MO Center= -1.6D-01, -2.6D-02, -1.6D-01, r^2= 4.4D+00
   Bfn.  Coefficient  Atom+Function         Bfn.  Coefficient  Atom+Function  
  ----- ------------  ---------------      ----- ------------  ---------------
    60      1.413882   7 C  s                82     -1.398991   8 C  px        
    79      1.313517   8 C  px               93     -1.311147  11 H  s         
    10     -1.104923   1 C  px               39     -0.992000   4 C  s         
    68      0.958086   7 C  py               99      0.943976  13 H  s         
    13      0.929434   1 C  px               66     -0.863320   7 C  pz        
 
 Vector   70  Occ=0.000000D+00  E= 1.731563D+00
              MO Center= -5.6D-01, -3.6D-01,  5.1D-02, r^2= 3.8D+00
   Bfn.  Coefficient  Atom+Function         Bfn.  Coefficient  Atom+Function  
  ----- ------------  ---------------      ----- ------------  ---------------
    47      1.684699   4 C  py               75      1.534562   8 C  s         
    82      1.186137   8 C  px               39     -1.107828   4 C  s         
    14      1.075699   1 C  py               84      1.062838   8 C  pz        
    25     -1.051842   2 C  px               81     -0.997576   8 C  pz        
    64      0.952372   7 C  px               44     -0.878884   4 C  py        
 
 Vector   71  Occ=0.000000D+00  E= 1.751240D+00
              MO Center= -4.5D-01, -2.0D-01,  2.9D-01, r^2= 3.3D+00
   Bfn.  Coefficient  Atom+Function         Bfn.  Coefficient  Atom+Function  
  ----- ------------  ---------------      ----- ------------  ---------------
    68      1.101988   7 C  py               43     -1.071584   4 C  px        
    39     -0.990950   4 C  s                45     -0.952047   4 C  pz        
    75     -0.939049   8 C  s                79     -0.938151   8 C  px        
    65     -0.922962   7 C  py               13     -0.821743   1 C  px        
    14     -0.816793   1 C  py               67     -0.812227   7 C  px        
 
 Vector   72  Occ=0.000000D+00  E= 1.785008D+00
              MO Center=  2.4D-01,  1.2D-01, -3.4D-02, r^2= 4.1D+00
   Bfn.  Coefficient  Atom+Function         Bfn.  Coefficient  Atom+Function  
  ----- ------------  ---------------      ----- ------------  ---------------
    48      1.797830   4 C  pz               84     -1.518667   8 C  pz        
    82      1.352752   8 C  px               81      1.340860   8 C  pz        
    14      1.305034   1 C  py               93      1.263360  11 H  s         
    21      1.254629   2 C  s                75      1.254913   8 C  s         
    87     -1.221186   9 H  s                90     -1.119605  10 H  s         
 
 Vector   73  Occ=0.000000D+00  E= 1.837884D+00
              MO Center= -1.9D-01, -6.4D-01,  2.5D-01, r^2= 3.8D+00
   Bfn.  Coefficient  Atom+Function         Bfn.  Coefficient  Atom+Function  
  ----- ------------  ---------------      ----- ------------  ---------------
    69      2.729647   7 C  pz               96     -2.126695  12 H  s         
    66     -2.024332   7 C  pz               99      1.996519  13 H  s         
    29     -1.627547   2 C  py               48     -1.591275   4 C  pz        
    67     -1.506011   7 C  px               54     -1.330936   6 H  s         
    45      1.248161   4 C  pz               13      1.219629   1 C  px        
 
 Vector   74  Occ=0.000000D+00  E= 1.866920D+00
              MO Center= -5.9D-02,  1.1D-01,  1.1D-02, r^2= 4.3D+00
   Bfn.  Coefficient  Atom+Function         Bfn.  Coefficient  Atom+Function  
  ----- ------------  ---------------      ----- ------------  ---------------
    29      1.969549   2 C  py               47     -1.712456   4 C  py        
    14     -1.563424   1 C  py               60     -1.562788   7 C  s         
    54      1.531182   6 H  s                11      1.451502   1 C  py        
    26     -1.425412   2 C  py               15      1.349968   1 C  pz        
    75     -1.272869   8 C  s                33      1.164972   3 H  s         
 
 Vector   75  Occ=0.000000D+00  E= 1.948442D+00
              MO Center= -2.1D-01,  4.7D-01,  3.7D-01, r^2= 3.0D+00
   Bfn.  Coefficient  Atom+Function         Bfn.  Coefficient  Atom+Function  
  ----- ------------  ---------------      ----- ------------  ---------------
    87      1.977027   9 H  s                48     -1.777966   4 C  pz        
    45      1.476881   4 C  pz               86     -1.354497   9 H  s         
    47     -1.291756   4 C  py               44      1.220687   4 C  py        
    43     -1.161480   4 C  px               10      1.081678   1 C  px        
    46      1.074915   4 C  px               11     -1.053694   1 C  py        
 
 Vector   76  Occ=0.000000D+00  E= 2.020553D+00
              MO Center=  5.4D-01,  7.4D-01, -9.5D-02, r^2= 3.8D+00
   Bfn.  Coefficient  Atom+Function         Bfn.  Coefficient  Atom+Function  
  ----- ------------  ---------------      ----- ------------  ---------------
    11      1.899779   1 C  py               26     -1.394526   2 C  py        
     6     -1.372333   1 C  s                51     -1.368803   5 H  s         
    32     -1.232490   3 H  s                29      1.161897   2 C  py        
    33      1.043982   3 H  s                50      1.033928   5 H  s         
    14     -0.974425   1 C  py               74     -0.897471   8 C  s         
 
 Vector   77  Occ=0.000000D+00  E= 2.301002D+00
              MO Center=  1.2D-01, -7.2D-01, -2.1D-02, r^2= 5.6D+00
   Bfn.  Coefficient  Atom+Function         Bfn.  Coefficient  Atom+Function  
  ----- ------------  ---------------      ----- ------------  ---------------
    59      1.803325   7 C  s                74     -1.711409   8 C  s         
    58     -1.441983   7 C  s                73      1.274243   8 C  s         
    20      1.258955   2 C  s                95     -1.083657  12 H  s         
    98     -1.040425  13 H  s                53     -0.989931   6 H  s         
    19     -0.927690   2 C  s                92      0.839469  11 H  s         
 
 Vector   78  Occ=0.000000D+00  E= 2.337823D+00
              MO Center= -1.0D+00, -3.5D-01, -5.1D-01, r^2= 4.6D+00
   Bfn.  Coefficient  Atom+Function         Bfn.  Coefficient  Atom+Function  
  ----- ------------  ---------------      ----- ------------  ---------------
    74      1.741459   8 C  s                73     -1.405288   8 C  s         
    89     -1.409984  10 H  s                92     -1.211227  11 H  s         
    38     -1.162350   4 C  s                88      0.890793  10 H  s         
    90      0.851910  10 H  s                14      0.775406   1 C  py        
    37      0.758872   4 C  s                91      0.720630  11 H  s         
 
 Vector   79  Occ=0.000000D+00  E= 2.380003D+00
              MO Center=  6.9D-01, -4.6D-01,  2.4D-02, r^2= 5.1D+00
   Bfn.  Coefficient  Atom+Function         Bfn.  Coefficient  Atom+Function  
  ----- ------------  ---------------      ----- ------------  ---------------
    59     -1.845136   7 C  s                20      1.711428   2 C  s         
    54      1.625336   6 H  s                38      1.553727   4 C  s         
    99     -1.444507  13 H  s                58      1.382264   7 C  s         
     5     -1.323789   1 C  s                53     -1.269839   6 H  s         
    19     -1.200909   2 C  s                13     -1.146740   1 C  px        
 
 Vector   80  Occ=0.000000D+00  E= 2.479546D+00
              MO Center= -8.8D-01,  4.4D-02, -1.3D-01, r^2= 5.0D+00
   Bfn.  Coefficient  Atom+Function         Bfn.  Coefficient  Atom+Function  
  ----- ------------  ---------------      ----- ------------  ---------------
     5      1.298567   1 C  s                14      1.251437   1 C  py        
    92      1.100541  11 H  s                 4     -1.052232   1 C  s         
     6     -1.052126   1 C  s                32     -1.028045   3 H  s         
    21      0.994347   2 C  s                89     -0.971956  10 H  s         
    91     -0.826333  11 H  s                47     -0.771275   4 C  py        
 
 Vector   81  Occ=0.000000D+00  E= 2.486655D+00
              MO Center=  6.1D-01,  5.8D-01, -1.7D-01, r^2= 5.2D+00
   Bfn.  Coefficient  Atom+Function         Bfn.  Coefficient  Atom+Function  
  ----- ------------  ---------------      ----- ------------  ---------------
    47      1.183649   4 C  py               50      1.146130   5 H  s         
    13      1.127945   1 C  px               19      1.020245   2 C  s         
    20     -0.997687   2 C  s                32      0.972272   3 H  s         
    15     -0.848268   1 C  pz                5     -0.797707   1 C  s         
    48      0.773392   4 C  pz               86     -0.769709   9 H  s         
 
 Vector   82  Occ=0.000000D+00  E= 2.499131D+00
              MO Center= -3.5D-01,  1.9D-01,  6.6D-01, r^2= 4.9D+00
   Bfn.  Coefficient  Atom+Function         Bfn.  Coefficient  Atom+Function  
  ----- ------------  ---------------      ----- ------------  ---------------
    86      1.508860   9 H  s                48     -1.192242   4 C  pz        
    75     -1.104142   8 C  s                85     -1.063259   9 H  s         
    74      0.986923   8 C  s                47     -0.930891   4 C  py        
    60     -0.923150   7 C  s                54      0.892385   6 H  s         
    20      0.886419   2 C  s                38     -0.856696   4 C  s         
 
 Vector   83  Occ=0.000000D+00  E= 2.596736D+00
              MO Center= -1.6D-01, -6.4D-01, -1.1D-01, r^2= 4.8D+00
   Bfn.  Coefficient  Atom+Function         Bfn.  Coefficient  Atom+Function  
  ----- ------------  ---------------      ----- ------------  ---------------
    20      1.986042   2 C  s                84      1.824637   8 C  pz        
    69     -1.762353   7 C  pz               19     -1.583113   2 C  s         
     5      1.398865   1 C  s                98     -1.289317  13 H  s         
    82     -1.246638   8 C  px                4     -1.149496   1 C  s         
    46      1.055842   4 C  px               95      0.942682  12 H  s         
 
 Vector   84  Occ=0.000000D+00  E= 2.655809D+00
              MO Center=  1.2D+00,  6.7D-01, -4.9D-01, r^2= 4.1D+00
   Bfn.  Coefficient  Atom+Function         Bfn.  Coefficient  Atom+Function  
  ----- ------------  ---------------      ----- ------------  ---------------
    14      3.526573   1 C  py               29     -3.236126   2 C  py        
    33     -1.416281   3 H  s                51      1.392279   5 H  s         
    53     -1.345399   6 H  s                75      1.171962   8 C  s         
    50      1.157194   5 H  s                38      1.115966   4 C  s         
    30      1.101522   2 C  pz               15     -1.071252   1 C  pz        
 
 Vector   85  Occ=0.000000D+00  E= 2.752824D+00
              MO Center= -8.1D-01, -6.8D-01,  1.1D-01, r^2= 2.4D+00
   Bfn.  Coefficient  Atom+Function         Bfn.  Coefficient  Atom+Function  
  ----- ------------  ---------------      ----- ------------  ---------------
    74      3.158169   8 C  s                59      2.737945   7 C  s         
    73     -2.566476   8 C  s                58     -2.280460   7 C  s         
    75     -2.093686   8 C  s                38      1.251568   4 C  s         
    60     -1.213366   7 C  s                14     -1.139341   1 C  py        
    21     -1.110011   2 C  s                37     -1.091011   4 C  s         
 
 Vector   86  Occ=0.000000D+00  E= 2.806489D+00
              MO Center=  2.2D-01,  4.6D-01,  1.1D-01, r^2= 4.2D+00
   Bfn.  Coefficient  Atom+Function         Bfn.  Coefficient  Atom+Function  
  ----- ------------  ---------------      ----- ------------  ---------------
     6     -3.903020   1 C  s                 5      3.793644   1 C  s         
    60      3.491914   7 C  s                47      3.154843   4 C  py        
     4     -2.793194   1 C  s                13      2.480521   1 C  px        
    21     -2.469352   2 C  s                59     -2.135185   7 C  s         
    69      1.946426   7 C  pz               20      1.831417   2 C  s         
 
 Vector   87  Occ=0.000000D+00  E= 2.855881D+00
              MO Center=  4.3D-01,  3.2D-01, -6.2D-02, r^2= 4.1D+00
   Bfn.  Coefficient  Atom+Function         Bfn.  Coefficient  Atom+Function  
  ----- ------------  ---------------      ----- ------------  ---------------
    39      5.121574   4 C  s                21     -4.379280   2 C  s         
    20      3.405312   2 C  s                38     -3.346350   4 C  s         
    60     -2.736112   7 C  s                13      2.544085   1 C  px        
    19     -2.353279   2 C  s                37      2.254667   4 C  s         
    59      1.620724   7 C  s                29     -1.497379   2 C  py        
 
 Vector   88  Occ=0.000000D+00  E= 2.896570D+00
              MO Center= -6.6D-01, -2.2D-01,  1.4D-01, r^2= 3.2D+00
   Bfn.  Coefficient  Atom+Function         Bfn.  Coefficient  Atom+Function  
  ----- ------------  ---------------      ----- ------------  ---------------
    39      5.919255   4 C  s                75     -5.433755   8 C  s         
    38     -3.947947   4 C  s                74      3.287594   8 C  s         
    37      2.651173   4 C  s                73     -2.180681   8 C  s         
    60      2.041758   7 C  s                14      2.019762   1 C  py        
    59     -1.716643   7 C  s                 6     -1.478723   1 C  s         
 
 Vector   89  Occ=0.000000D+00  E= 2.922612D+00
              MO Center=  4.5D-01, -3.9D-02,  1.5D-03, r^2= 4.2D+00
   Bfn.  Coefficient  Atom+Function         Bfn.  Coefficient  Atom+Function  
  ----- ------------  ---------------      ----- ------------  ---------------
     6      6.197185   1 C  s                21     -5.598643   2 C  s         
    60      5.565521   7 C  s                39     -3.939593   4 C  s         
     5     -3.802466   1 C  s                59     -2.987616   7 C  s         
    20      2.849257   2 C  s                14     -2.676320   1 C  py        
     4      2.448077   1 C  s                75     -2.275505   8 C  s         
 
 Vector   90  Occ=0.000000D+00  E= 1.171815D+01
              MO Center=  1.2D+00,  7.6D-01, -4.0D-01, r^2= 1.1D+00
   Bfn.  Coefficient  Atom+Function         Bfn.  Coefficient  Atom+Function  
  ----- ------------  ---------------      ----- ------------  ---------------
    19     -2.428223   2 C  s                18      2.412799   2 C  s         
     4     -2.129394   1 C  s                 3      2.068934   1 C  s         
    20      2.004895   2 C  s                 5      1.802591   1 C  s         
     6     -1.274356   1 C  s                17     -1.273730   2 C  s         
    21     -1.273632   2 C  s                 2     -1.087902   1 C  s         
 
 Vector   91  Occ=0.000000D+00  E= 1.185523D+01
              MO Center= -4.3D-01, -1.1D+00,  4.5D-01, r^2= 6.7D-01
   Bfn.  Coefficient  Atom+Function         Bfn.  Coefficient  Atom+Function  
[...]
    38     -0.981161   4 C  s                54      0.935589   6 H  s         
 
 Vector   83  Occ=0.000000D+00  E= 2.600953D+00
              MO Center= -1.6D-01, -6.6D-01, -1.0D-01, r^2= 4.9D+00
   Bfn.  Coefficient  Atom+Function         Bfn.  Coefficient  Atom+Function  
  ----- ------------  ---------------      ----- ------------  ---------------
    20      1.927453   2 C  s                84      1.844415   8 C  pz        
    69     -1.807676   7 C  pz               19     -1.539434   2 C  s         
     5      1.326537   1 C  s                98     -1.294057  13 H  s         
    82     -1.278083   8 C  px                4     -1.094895   1 C  s         
    46      1.026247   4 C  px               95      0.965265  12 H  s         
 
 Vector   84  Occ=0.000000D+00  E= 2.658367D+00
              MO Center=  1.2D+00,  6.9D-01, -4.8D-01, r^2= 4.1D+00
   Bfn.  Coefficient  Atom+Function         Bfn.  Coefficient  Atom+Function  
  ----- ------------  ---------------      ----- ------------  ---------------
    14      3.547530   1 C  py               29     -3.232147   2 C  py        
    33     -1.426111   3 H  s                51      1.398933   5 H  s         
    53     -1.334176   6 H  s                75      1.145354   8 C  s         
    50      1.135092   5 H  s                38      1.117437   4 C  s         
    30      1.101129   2 C  pz               15     -1.061501   1 C  pz        
 
 Vector   85  Occ=0.000000D+00  E= 2.755338D+00
              MO Center= -8.1D-01, -6.9D-01,  1.2D-01, r^2= 2.3D+00
   Bfn.  Coefficient  Atom+Function         Bfn.  Coefficient  Atom+Function  
  ----- ------------  ---------------      ----- ------------  ---------------
    74      3.148092   8 C  s                59      2.791108   7 C  s         
    73     -2.560618   8 C  s                58     -2.315526   7 C  s         
    75     -2.071357   8 C  s                60     -1.304692   7 C  s         
    38      1.277441   4 C  s                14     -1.117642   1 C  py        
    37     -1.107488   4 C  s                21     -1.015148   2 C  s         
 
 Vector   86  Occ=0.000000D+00  E= 2.814087D+00
              MO Center=  2.4D-01,  4.5D-01,  1.1D-01, r^2= 4.2D+00
   Bfn.  Coefficient  Atom+Function         Bfn.  Coefficient  Atom+Function  
  ----- ------------  ---------------      ----- ------------  ---------------
     5      3.776395   1 C  s                 6     -3.787400   1 C  s         
    60      3.615646   7 C  s                47      3.185080   4 C  py        
     4     -2.794505   1 C  s                21     -2.565549   2 C  s         
    13      2.491364   1 C  px               59     -2.161929   7 C  s         
    69      1.916691   7 C  pz               20      1.900346   2 C  s         
 
 Vector   87  Occ=0.000000D+00  E= 2.861892D+00
              MO Center=  3.4D-01,  2.7D-01,  9.4D-03, r^2= 4.1D+00
   Bfn.  Coefficient  Atom+Function         Bfn.  Coefficient  Atom+Function  
  ----- ------------  ---------------      ----- ------------  ---------------
    39      5.529560   4 C  s                21     -4.031656   2 C  s         
    38     -3.570624   4 C  s                20      3.248643   2 C  s         
    60     -2.994756   7 C  s                13      2.456352   1 C  px        
    37      2.394452   4 C  s                19     -2.261751   2 C  s         
    59      1.744337   7 C  s                29     -1.544256   2 C  py        
 
 Vector   88  Occ=0.000000D+00  E= 2.898942D+00
              MO Center= -6.9D-01, -2.6D-01,  1.2D-01, r^2= 3.3D+00
   Bfn.  Coefficient  Atom+Function         Bfn.  Coefficient  Atom+Function  
  ----- ------------  ---------------      ----- ------------  ---------------
    39      5.598063   4 C  s                75     -5.578969   8 C  s         
    38     -3.753121   4 C  s                74      3.396437   8 C  s         
    37      2.522668   4 C  s                60      2.355833   7 C  s         
    73     -2.255539   8 C  s                14      1.877137   1 C  py        
    59     -1.875141   7 C  s                58      1.351980   7 C  s         
 
 Vector   89  Occ=0.000000D+00  E= 2.930576D+00
              MO Center=  5.9D-01,  9.0D-02, -6.3D-02, r^2= 4.1D+00
   Bfn.  Coefficient  Atom+Function         Bfn.  Coefficient  Atom+Function  
  ----- ------------  ---------------      ----- ------------  ---------------
     6      6.377574   1 C  s                21     -5.863617   2 C  s         
    60      5.198793   7 C  s                 5     -3.981031   1 C  s         
    39     -3.851883   4 C  s                20      3.089471   2 C  s         
    59     -2.741736   7 C  s                14     -2.724305   1 C  py        
     4      2.568452   1 C  s                38      2.042960   4 C  s         
 
 Vector   90  Occ=0.000000D+00  E= 1.172582D+01
              MO Center=  1.2D+00,  7.6D-01, -4.0D-01, r^2= 1.1D+00
   Bfn.  Coefficient  Atom+Function         Bfn.  Coefficient  Atom+Function  
  ----- ------------  ---------------      ----- ------------  ---------------
    19     -2.425343   2 C  s                18      2.409823   2 C  s         
     4     -2.125113   1 C  s                 3      2.064796   1 C  s         
    20      2.001995   2 C  s                 5      1.797833   1 C  s         
     6     -1.266861   1 C  s                17     -1.271974   2 C  s         
    21     -1.272666   2 C  s                 2     -1.085564   1 C  s         
 
 Vector   91  Occ=0.000000D+00  E= 1.185584D+01
              MO Center= -4.1D-01, -1.2D+00,  4.6D-01, r^2= 5.9D-01
   Bfn.  Coefficient  Atom+Function         Bfn.  Coefficient  Atom+Function  
  ----- ------------  ---------------      ----- ------------  ---------------
    58     -3.261869   7 C  s                57      3.139150   7 C  s         
    59      2.910329   7 C  s                60     -2.412143   7 C  s         
    56     -1.642439   7 C  s                39      1.054115   4 C  s         
    37      0.947707   4 C  s                38     -0.945809   4 C  s         
    36     -0.887537   4 C  s                47     -0.482790   4 C  py        
 
 Vector   92  Occ=0.000000D+00  E= 1.185754D+01
              MO Center= -1.4D+00, -4.1D-01, -1.6D-01, r^2= 6.5D-01
   Bfn.  Coefficient  Atom+Function         Bfn.  Coefficient  Atom+Function  
  ----- ------------  ---------------      ----- ------------  ---------------
    73     -3.230278   8 C  s                72      3.112552   8 C  s         
    74      2.885786   8 C  s                75     -2.376869   8 C  s         
    71     -1.629797   8 C  s                37      0.978154   4 C  s         
    38     -0.951707   4 C  s                36     -0.911238   4 C  s         
    39      0.879044   4 C  s                60      0.597118   7 C  s         
 
 Vector   93  Occ=0.000000D+00  E= 1.195589D+01
              MO Center= -3.9D-01,  9.7D-02,  4.7D-01, r^2= 9.1D-01
   Bfn.  Coefficient  Atom+Function         Bfn.  Coefficient  Atom+Function  
  ----- ------------  ---------------      ----- ------------  ---------------
    37     -3.198706   4 C  s                36      3.008229   4 C  s         
    38      2.958590   4 C  s                39     -2.869915   4 C  s         
    35     -1.561650   4 C  s                72      0.903374   8 C  s         
    73     -0.907653   8 C  s                58     -0.885686   7 C  s         
    57      0.866097   7 C  s                 6      0.860157   1 C  s         
 
 Vector   94  Occ=0.000000D+00  E= 1.208787D+01
              MO Center=  1.1D+00,  8.6D-01, -3.2D-01, r^2= 8.6D-01
   Bfn.  Coefficient  Atom+Function         Bfn.  Coefficient  Atom+Function  
  ----- ------------  ---------------      ----- ------------  ---------------
     4     -2.698687   1 C  s                 6     -2.654535   1 C  s         
     5      2.604291   1 C  s                 3      2.528536   1 C  s         
    21      2.325305   2 C  s                19      2.206018   2 C  s         
    20     -2.123406   2 C  s                18     -2.096171   2 C  s         
     2     -1.313432   1 C  s                17      1.091624   2 C  s         
 
 Vector   95  Occ=0.000000D+00  E= 6.268031D+01
              MO Center=  1.1D+00,  7.4D-01, -3.9D-01, r^2= 9.4D-01
   Bfn.  Coefficient  Atom+Function         Bfn.  Coefficient  Atom+Function  
  ----- ------------  ---------------      ----- ------------  ---------------
    17      2.168283   2 C  s                 2      1.828398   1 C  s         
    18     -1.636812   2 C  s                 3     -1.384567   1 C  s         
    16     -1.287712   2 C  s                 1     -1.085120   1 C  s         
    19      1.068303   2 C  s                 4      0.922801   1 C  s         
    20     -0.836760   2 C  s                 5     -0.739121   1 C  s         
 
 Vector   96  Occ=0.000000D+00  E= 6.280317D+01
              MO Center= -5.4D-01, -9.9D-01,  3.7D-01, r^2= 6.6D-01
   Bfn.  Coefficient  Atom+Function         Bfn.  Coefficient  Atom+Function  
  ----- ------------  ---------------      ----- ------------  ---------------
    56      2.554289   7 C  s                57     -1.950196   7 C  s         
    55     -1.509044   7 C  s                58      1.315018   7 C  s         
    59     -1.100759   7 C  s                71      1.080235   8 C  s         
    35     -0.890742   4 C  s                60      0.857591   7 C  s         
    72     -0.825809   8 C  s                36      0.676849   4 C  s         
 
 Vector   97  Occ=0.000000D+00  E= 6.280904D+01
              MO Center= -1.3D+00, -6.0D-01, -8.9D-02, r^2= 5.8D-01
   Bfn.  Coefficient  Atom+Function         Bfn.  Coefficient  Atom+Function  
  ----- ------------  ---------------      ----- ------------  ---------------
    71      2.611797   8 C  s                72     -1.991213   8 C  s         
    70     -1.543661   8 C  s                73      1.346753   8 C  s         
    56     -1.267939   7 C  s                74     -1.154214   8 C  s         
    75      0.983335   8 C  s                57      0.965999   7 C  s         
    55      0.749374   7 C  s                58     -0.659956   7 C  s         
 
 Vector   98  Occ=0.000000D+00  E= 6.289617D+01
              MO Center= -3.4D-01,  1.4D-01,  4.8D-01, r^2= 6.1D-01
   Bfn.  Coefficient  Atom+Function         Bfn.  Coefficient  Atom+Function  
  ----- ------------  ---------------      ----- ------------  ---------------
    35      2.729878   4 C  s                36     -2.098997   4 C  s         
    34     -1.608450   4 C  s                37      1.453235   4 C  s         
    38     -1.280419   4 C  s                39      1.249303   4 C  s         
    17     -0.660484   2 C  s                71      0.654984   8 C  s         
    56      0.646310   7 C  s                18      0.505330   2 C  s         
 
 Vector   99  Occ=0.000000D+00  E= 6.303769D+01
              MO Center=  1.0D+00,  8.5D-01, -3.1D-01, r^2= 6.3D-01
   Bfn.  Coefficient  Atom+Function         Bfn.  Coefficient  Atom+Function  
  ----- ------------  ---------------      ----- ------------  ---------------
     2      2.262787   1 C  s                17     -1.857650   2 C  s         
     3     -1.743192   1 C  s                18      1.428227   2 C  s         
     1     -1.330971   1 C  s                 4      1.214760   1 C  s         
     6      1.148519   1 C  s                 5     -1.115202   1 C  s         
    16      1.093189   2 C  s                21     -0.991050   2 C  s         
 

   alpha - beta orbital overlaps 
   ----------------------------- 


   alpha      1      2      3      4      5      6      7      8      9     10
    beta      1      2      3      4      5      6      7      8      9     10
 overlap   1.000  1.000  1.000  1.000  1.000  1.000  1.000  0.992  0.992  0.998


   alpha     11     12     13     14     15     16     17     18     19     20
    beta     11     12     13     14     15     16     17     18     19     20
 overlap   1.000  0.999  1.000  1.000  1.000  0.999  0.992  0.994  0.996  0.770


   alpha     21     22     23     24     25     26     27     28     29     30
    beta     21     22     23     24     25     26     27     28     29     30
 overlap   0.641  0.866  0.922  0.921  0.995  0.955  0.957  0.993  0.980  0.975


   alpha     31     32     33     34     35     36     37     38     39     40
    beta     31     32     33     34     35     36     37     38     39     40
 overlap   0.991  0.998  0.999  0.976  0.984  0.969  0.978  0.990  0.942  0.945


   alpha     41     42     43     44     45     46     47     48     49     50
    beta     41     42     43     44     45     46     47     48     49     50
 overlap   0.985  0.976  0.995  0.988  0.987  0.994  0.974  0.971  0.985  0.975


   alpha     51     52     53     54     55     56     57     58     59     60
    beta     51     52     53     54     55     56     57     58     59     60
 overlap   0.746  0.771  0.996  0.993  0.995  0.996  1.000  0.995  0.989  0.984


   alpha     61     62     63     64     65     66     67     68     69     70
    beta     61     62     63     64     65     66     67     68     69     70
 overlap   0.992  1.000  0.999  0.917  0.915  0.974  0.703  0.721  1.000  0.998


   alpha     71     72     73     74     75     76     77     78     79     80
    beta     71     72     73     74     75     76     77     78     79     80
 overlap   0.994  0.999  1.000  1.000  1.000  1.000  1.000  0.999  1.000  0.999


   alpha     81     82     83     84     85     86     87     88     89     90
    beta     81     82     83     84     85     86     87     88     89     90
 overlap   0.987  0.988  1.000  1.000  1.000  0.999  0.997  0.999  0.997  1.000


   alpha     91     92     93     94     95     96     97     98     99
    beta     91     92     93     94     95     96     97     98     99
 overlap   0.990  0.990  1.000  1.000  1.000  0.992  0.992  1.000  1.000

     --------------------------
     Expectation value of S2:  
     --------------------------
      <S2> =      0.7513 (Exact =     0.7500)
 

 center of mass
 --------------
 x =   0.00610174 y =   0.02361147 z =   0.00984547

 moments of inertia (a.u.)
 ------------------
         272.245300827398        -144.610189972958          73.925406219848
        -144.610189972958         405.479601358494          46.799854375204
          73.925406219848          46.799854375204         530.754736547355
 
     Multipole analysis of the density
     ---------------------------------
 
     L   x y z        total         alpha         beta         nuclear
     -   - - -        -----         -----         ----         -------
     0   0 0 0     -1.000000    -20.000000    -19.000000     38.000000
 
     1   1 0 0     -0.329372     -0.304428     -0.024944     -0.000000
     1   0 1 0     -0.435668     -0.584259      0.148591     -0.000000
     1   0 0 1      0.002166     -0.063207      0.065372      0.000000
 
     2   2 0 0    -39.859251   -127.199406   -113.873503    201.213659
     2   1 1 0     -3.978677    -44.346301    -41.137047     81.504672
     2   1 0 1      2.172768     25.591842     22.218442    -45.637516
     2   0 2 0    -30.929075    -79.636215    -75.255226    123.962366
     2   0 1 1      0.737590     14.536990     13.919169    -27.718569
     2   0 0 2    -31.646609    -43.909994    -38.257320     50.520705
 

 Task  times  cpu:        7.1s     wall:        7.5s
 
 
                                NWChem Input Module
                                -------------------
 
 
 Summary of allocated global arrays
-----------------------------------
  No active global arrays



                         GA Statistics for process    0
                         ------------------------------

       create   destroy   get      put      acc     scatter   gather  read&inc
calls:  443      443     5.97e+04 3359     4.88e+04    0        0      677     
number of processes/call 8.88e+00 4.91e+01 6.80e+00 0.00e+00 0.00e+00
bytes total:             9.49e+07 1.03e+07 5.37e+07 0.00e+00 0.00e+00 5.42e+03
bytes remote:            8.26e+07 6.59e+06 4.77e+07 0.00e+00 0.00e+00 0.00e+00
Max memory consumed for GA by this process: 493856 bytes
 
 
 
                                     CITATION
                                     --------
                Please cite the following reference when publishing
                           results obtained with NWChem:
 
          E. Apr, E. J. Bylaska, W. A. de Jong, N. Govind, K. Kowalski,
       T. P. Straatsma, M. Valiev, H. J. J. van Dam, Y. Alexeev, J. Anchell,
       V. Anisimov, F. W. Aquino, R. Atta-Fynn, J. Autschbach, N. P. Bauman,
     J. C. Becca, D. E. Bernholdt, K. Bhaskaran-Nair, S. Bogatko, P. Borowski,
        J. Boschen, J. Brabec, A. Bruner, E. Caut, Y. Chen, G. N. Chuev,
      C. J. Cramer, J. Daily, M. J. O. Deegan, T. H. Dunning Jr., M. Dupuis,
   K. G. Dyall, G. I. Fann, S. A. Fischer, A. Fonari, H. Frchtl, L. Gagliardi,
      J. Garza, N. Gawande, S. Ghosh, K. Glaesemann, A. W. Gtz, J. Hammond,
       V. Helms, E. D. Hermes, K. Hirao, S. Hirata, M. Jacquelin, L. Jensen,
   B. G. Johnson, H. Jnsson, R. A. Kendall, M. Klemm, R. Kobayashi, V. Konkov,
      S. Krishnamoorthy, M. Krishnan, Z. Lin, R. D. Lins, R. J. Littlefield,
      A. J. Logsdail, K. Lopata, W. Ma, A. V. Marenich, J. Martin del Campo,
   D. Mejia-Rodriguez, J. E. Moore, J. M. Mullin, T. Nakajima, D. R. Nascimento,
    J. A. Nichols, P. J. Nichols, J. Nieplocha, A. Otero-de-la-Roza, B. Palmer,
    A. Panyala, T. Pirojsirikul, B. Peng, R. Peverati, J. Pittner, L. Pollack,
   R. M. Richard, P. Sadayappan, G. C. Schatz, W. A. Shelton, D. W. Silverstein,
   D. M. A. Smith, T. A. Soares, D. Song, M. Swart, H. L. Taylor, G. S. Thomas,
            V. Tipparaju, D. G. Truhlar, K. Tsemekhman, T. Van Voorhis,
     . Vzquez-Mayagoitia, P. Verma, O. Villa, A. Vishnu, K. D. Vogiatzis,
        D. Wang, J. H. Weare, M. J. Williamson, T. L. Windus, K. Woliski,
        A. T. Wong, Q. Wu, C. Yang, Q. Yu, M. Zacharias, Z. Zhang, Y. Zhao,
                                and R. J. Harrison
                        "NWChem: Past, present, and future
                         J. Chem. Phys. 152, 184102 (2020)
                               doi:10.1063/5.0004997
 
                                      AUTHORS
                                      -------
     E. Apra, E. J. Bylaska, N. Govind, K. Kowalski, M. Valiev, W. A. de Jong,
      T. P. Straatsma, H. J. J. van Dam, D. Wang, T. L. Windus, N. P. Bauman,
       A. Panyala, J. Hammond, J. Autschbach, K. Bhaskaran-Nair, J. Brabec,
    K. Lopata, S. A. Fischer, S. Krishnamoorthy, M. Jacquelin, W. Ma, M. Klemm,
       O. Villa, Y. Chen, V. Anisimov, F. Aquino, S. Hirata, M. T. Hackler,
           Eric Hermes, L. Jensen, J. E. Moore, J. C. Becca, V. Konjkov,
            D. Mejia-Rodriguez, T. Risthaus, M. Malagoli, A. Marenich,
   A. Otero-de-la-Roza, J. Mullin, P. Nichols, R. Peverati, J. Pittner, Y. Zhao,
        P.-D. Fan, A. Fonari, M. J. Williamson, R. J. Harrison, J. R. Rehr,
      M. Dupuis, D. Silverstein, D. M. A. Smith, J. Nieplocha, V. Tipparaju,
      M. Krishnan, B. E. Van Kuiken, A. Vazquez-Mayagoitia, M. Swart, Q. Wu,
   T. Van Voorhis, A. A. Auer, M. Nooijen, L. D. Crosby, E. Brown, G. Cisneros,
     G. I. Fann, H. Fruchtl, J. Garza, K. Hirao, R. A. Kendall, J. A. Nichols,
       K. Tsemekhman, K. Wolinski, J. Anchell, D. E. Bernholdt, P. Borowski,
       T. Clark, D. Clerc, H. Dachsel, M. J. O. Deegan, K. Dyall, D. Elwood,
      E. Glendening, M. Gutowski, A. C. Hess, J. Jaffe, B. G. Johnson, J. Ju,
        R. Kobayashi, R. Kutteh, Z. Lin, R. Littlefield, X. Long, B. Meng,
      T. Nakajima, S. Niu, L. Pollack, M. Rosing, K. Glaesemann, G. Sandrone,
      M. Stave, H. Taylor, G. Thomas, J. H. van Lenthe, A. T. Wong, Z. Zhang.

 Total times  cpu:        7.1s     wall:        7.6s
