 
             Northwest Computational Chemistry Package (NWChem) 7.0.0
             --------------------------------------------------------
 
 
                    Environmental Molecular Sciences Laboratory
                       Pacific Northwest National Laboratory
                                Richland, WA 99352
 
                              Copyright (c) 1994-2020
                       Pacific Northwest National Laboratory
                            Battelle Memorial Institute
 
             NWChem is an open-source computational chemistry package
                        distributed under the terms of the
                      Educational Community License (ECL) 2.0
             A copy of the license is included with this distribution
                              in the LICENSE.TXT file
 
                                  ACKNOWLEDGMENT
                                  --------------

            This software and its documentation were developed at the
            EMSL at Pacific Northwest National Laboratory, a multiprogram
            national laboratory, operated for the U.S. Department of Energy
            by Battelle under Contract Number DE-AC05-76RL01830. Support
            for this work was provided by the Department of Energy Office
            of Biological and Environmental Research, Office of Basic
            Energy Sciences, and the Office of Advanced Scientific Computing.


                                NWChem Input Module
                                -------------------
 
 
 Summary of "ao basis" -> "" (spherical)
 ------------------------------------------------------------------------------
       Tag                 Description            Shells   Functions and Types
 ---------------- ------------------------------  ------  ---------------------
 *                        ahlrichs_vtz                on all atoms 



 Scaling coordinates for geometry "geometry" by  1.889725989
 (inverse scale =  0.529177249)

 
 
                             Geometry "geometry" -> ""
                             -------------------------
 
 Output coordinates in angstroms (scale by  1.889725989 to convert to a.u.)
 
  No.       Tag          Charge          X              Y              Z
 ---- ---------------- ---------- -------------- -------------- --------------
    1 C                    6.0000     0.09483265     1.49648796     0.01671272
    2 C                    6.0000     1.42635536     1.61839195    -0.11397685
    3 H                    1.0000    -0.57484646     2.35220625     0.09901637
    4 O                    8.0000    -0.65764650     0.32768037     0.07081099
    5 H                    1.0000     1.86659530     2.61354565    -0.13987019
    6 H                    1.0000     2.10800350     0.77393195    -0.19732769
    7 C                    6.0000     0.08098051    -0.94205474    -0.02522139
    8 C                    6.0000    -0.93680533    -2.06444295     0.05832697
    9 H                    1.0000     0.81283634    -0.99387307     0.79959399
   10 H                    1.0000     0.63347192    -0.96356494    -0.98068901
   11 H                    1.0000    -1.48402938    -2.02281641     1.00959054
   12 H                    1.0000    -0.43013608    -3.03847230    -0.00937091
   13 H                    1.0000    -1.66290232    -1.99269342    -0.76247962
 
      Atomic Mass 
      ----------- 
 
      C                 12.000000
      H                  1.007825
      O                 15.994910
 

 Effective nuclear repulsion energy (a.u.)     174.0510111644

            Nuclear Dipole moment (a.u.) 
            ----------------------------
        X                 Y               Z
 ---------------- ---------------- ----------------
     0.0000000000     0.0000000000     0.0000000000
 
 
            XYZ format geometry
            -------------------
    13
 geometry
 C                     0.09483265     1.49648796     0.01671272
 C                     1.42635536     1.61839195    -0.11397685
 H                    -0.57484646     2.35220625     0.09901637
 O                    -0.65764650     0.32768037     0.07081099
 H                     1.86659530     2.61354565    -0.13987019
 H                     2.10800350     0.77393195    -0.19732769
 C                     0.08098051    -0.94205474    -0.02522139
 C                    -0.93680533    -2.06444295     0.05832697
 H                     0.81283634    -0.99387307     0.79959399
 H                     0.63347192    -0.96356494    -0.98068901
 H                    -1.48402938    -2.02281641     1.00959054
 H                    -0.43013608    -3.03847230    -0.00937091
 H                    -1.66290232    -1.99269342    -0.76247962
 
 ==============================================================================
                                internuclear distances
 ------------------------------------------------------------------------------
       center one      |      center two      | atomic units |  angstroms
 ------------------------------------------------------------------------------
    2 C                |   1 C                |     2.53878  |     1.34346
    3 H                |   1 C                |     2.05928  |     1.08972
    4 O                |   1 C                |     2.62887  |     1.39114
    5 H                |   2 C                |     2.05695  |     1.08849
    6 H                |   2 C                |     2.05686  |     1.08844
    7 C                |   4 O                |     2.78183  |     1.47208
    8 C                |   7 C                |     2.86755  |     1.51744
    9 H                |   7 C                |     2.08609  |     1.10391
   10 H                |   7 C                |     2.08610  |     1.10391
   11 H                |   8 C                |     2.07534  |     1.09822
   12 H                |   8 C                |     2.07872  |     1.10001
   13 H                |   8 C                |     2.07534  |     1.09822
 ------------------------------------------------------------------------------
                         number of included internuclear distances:         12
 ==============================================================================



 ==============================================================================
                                 internuclear angles
 ------------------------------------------------------------------------------
        center 1       |       center 2       |       center 3       |  degrees
 ------------------------------------------------------------------------------
    2 C                |   1 C                |   3 H                |   123.04
    2 C                |   1 C                |   4 O                |   128.03
    3 H                |   1 C                |   4 O                |   108.93
    1 C                |   2 C                |   5 H                |   119.09
    1 C                |   2 C                |   6 H                |   123.90
    5 H                |   2 C                |   6 H                |   117.01
    1 C                |   4 O                |   7 C                |   116.79
    4 O                |   7 C                |   8 C                |   107.33
    4 O                |   7 C                |   9 H                |   108.93
    4 O                |   7 C                |  10 H                |   108.93
    8 C                |   7 C                |   9 H                |   111.64
    8 C                |   7 C                |  10 H                |   111.65
    9 H                |   7 C                |  10 H                |   108.30
    7 C                |   8 C                |  11 H                |   110.72
    7 C                |   8 C                |  12 H                |   110.04
    7 C                |   8 C                |  13 H                |   110.73
   11 H                |   8 C                |  12 H                |   108.44
   11 H                |   8 C                |  13 H                |   108.39
   12 H                |   8 C                |  13 H                |   108.44
 ------------------------------------------------------------------------------
                            number of included internuclear angles:         19
 ==============================================================================



                              Aldehyde and Ketone set
                              -----------------------
 
                                 NWChem DFT Module
                                 -----------------
 
 
                              Aldehyde and Ketone set
 
 
                      Basis "ao basis" -> "ao basis" (spherical)
                      -----
  C (Carbon)
  ----------
            Exponent  Coefficients 
       -------------- ---------------------------------------------------------
  1 S  8.50603840E+03  0.000534
  1 S  1.27573290E+03  0.004125
  1 S  2.90311870E+02  0.021171
  1 S  8.20562000E+01  0.082418
  1 S  2.64796410E+01  0.240129
 
  2 S  9.24145850E+00  1.000000
 
  3 S  3.36435300E+00  1.000000
 
  4 S  8.71741640E-01  1.000000
 
  5 S  3.63523520E-01  1.000000
 
  6 S  1.28731350E-01  1.000000
 
  7 P  3.47094960E+01  0.005330
  7 P  7.95908830E+00  0.035866
  7 P  2.37869720E+00  0.142003
  7 P  8.15400650E-01  0.342031
 
  8 P  2.89537850E-01  1.000000
 
  9 P  1.00847540E-01  1.000000
 
  H (Hydrogen)
  ------------
            Exponent  Coefficients 
       -------------- ---------------------------------------------------------
  1 S  3.40613410E+01  0.006025
  1 S  5.12357460E+00  0.045021
  1 S  1.16466260E+00  0.201897
 
  2 S  3.27230410E-01  1.000000
 
  3 S  1.03072410E-01  1.000000
 
  O (Oxygen)
  ----------
            Exponent  Coefficients 
       -------------- ---------------------------------------------------------
  1 S  1.59026475E+04  0.000515
  1 S  2.38495378E+03  0.003982
  1 S  5.42719572E+02  0.020477
  1 S  1.53404079E+02  0.080262
  1 S  4.95457161E+01  0.237668
 
  2 S  1.73396499E+01  1.000000
 
  3 S  6.33033553E+00  1.000000
 
  4 S  1.69958822E+00  1.000000
 
  5 S  6.89544913E-01  1.000000
 
  6 S  2.39360282E-01  1.000000
 
  7 P  6.32705240E+01  0.006071
  7 P  1.46233123E+01  0.041948
  7 P  4.44895180E+00  0.161569
  7 P  1.52815132E+00  0.356828
 
  8 P  5.29973159E-01  1.000000
 
  9 P  1.75094460E-01  1.000000
 


 Summary of "ao basis" -> "ao basis" (spherical)
 ------------------------------------------------------------------------------
       Tag                 Description            Shells   Functions and Types
 ---------------- ------------------------------  ------  ---------------------
 C                        ahlrichs vtz               9       15   6s3p
 H                        ahlrichs vtz               3        3   3s
 O                        ahlrichs vtz               9       15   6s3p




 Summary of "ao basis" -> "ao basis" (spherical)
 ------------------------------------------------------------------------------
       Tag                 Description            Shells   Functions and Types
 ---------------- ------------------------------  ------  ---------------------
 C                        ahlrichs vtz               9       15   6s3p
 H                        ahlrichs vtz               3        3   3s
 O                        ahlrichs vtz               9       15   6s3p


  Caching 1-el integrals 
 
            General Information
            -------------------
          SCF calculation type: DFT
          Wavefunction type:  spin polarized.
          No. of atoms     :    13
          No. of electrons :    41
           Alpha electrons :    21
            Beta electrons :    20
          Charge           :    -1
          Spin multiplicity:     2
          Use of symmetry is: off; symmetry adaption is: off
          Maximum number of iterations: 999
          This is a Direct SCF calculation.
          AO basis - number of functions:    99
                     number of shells:    69
          Convergence on energy requested:  1.00D-08
          Convergence on density requested:  1.00D-07
          Convergence on gradient requested:  1.00D-06
 
              XC Information
              --------------
                        PBE96 Method XC Functional
          PerdewBurkeErnzerhof Exchange Functional  1.000          
            Perdew 1991 LDA Correlation Functional  1.000 local    
           PerdewBurkeErnz. Correlation Functional  1.000 non-local
 
             Grid Information
             ----------------
          Grid used for XC integration:  fine      
          Radial quadrature: Mura-Knowles        
          Angular quadrature: Lebedev. 
          Tag              B.-S. Rad. Rad. Pts. Rad. Cut. Ang. Pts.
          ---              ---------- --------- --------- ---------
          C                   0.70       70          14.0       590
          H                   0.35       60          14.0       590
          O                   0.60       70          10.0       590
          Grid pruning is: on 
          Number of quadrature shells:   830
          Spatial weights used:  Erf1
 
          Convergence Information
          -----------------------
          Convergence aids based upon iterative change in 
          total energy or number of iterations. 
          Levelshifting, if invoked, occurs when the 
          HOMO/LUMO gap drops below (HL_TOL):  1.00D-02
          DIIS, if invoked, will attempt to extrapolate 
          using up to (NFOCK): 10 stored Fock matrices.

                    Damping( 0%)  Levelshifting(0.5)       DIIS
                  --------------- ------------------- ---------------
          dE  on:    start            ASAP                start   
          dE off:    2 iters        999 iters           999 iters 

 
      Screening Tolerance Information
      -------------------------------
          Density screening/tol_rho:  1.00D-12
          AO Gaussian exp screening on grid/accAOfunc:  18
          CD Gaussian exp screening on grid/accCDfunc:  20
          XC Gaussian exp screening on grid/accXCfunc:  20
          Schwarz screening/accCoul:  1.00D-12

      Dispersion Parameters
      ---------------------

           DFT-D3BJ Model   
          s6 scale factor  :        1.000000000000
          s8 scale factor  :        0.787500000000
          a1 parameter     :        0.428900000000
          a2 parameter     :        4.440700000000
              vdW contrib  :       -0.008371659325


 Forcing the number of linearly dependent vectors to be  0
 
      Superposition of Atomic Density Guess
      -------------------------------------
 
 Sum of atomic energies:        -229.46696562
   Time after variat. SCF:      0.1
   Time prior to 1st pass:      0.1

 Grid_pts file          = ./23_EtOCHCH2.gridpts.00
 Record size in doubles =  12289        No. of grid_pts per rec  =   3070
 Max. records in memory =     13        Max. recs in file   =  67550051

 Grid integrated density:      39.999996341926
 Requested integration accuracy:   0.10E-06

           Memory utilization after 1st SCF pass: 
           Heap Space remaining (MW):        0.00                 351
          Stack Space remaining (MW):      288.36           288357004

   convergence    iter        energy       DeltaE   RMS-Dens  Diis-err    time
 ---------------- ----- ----------------- --------- --------- ---------  ------
 d= 0,ls=0.0,diis     1   -232.7163067947 -4.07D+02  1.62D-02  1.39D+01     0.5
                                                     1.36D-02  1.26D+01
 d= 0,ls=0.0,diis     2   -231.6866872857  1.03D+00  1.32D-01  6.51D-01     0.9
                                                     1.27D-01  6.01D-01
 d= 0,ls=0.0,diis     3   -230.1692482645  1.52D+00  1.32D-01  2.39D+00     1.3
                                                     1.27D-01  2.01D+00
 d= 0,ls=0.0,diis     4   -231.9477610810 -1.78D+00  1.02D-01  1.67D-01     1.7
                                                     3.67D-03  1.61D-01
 d= 0,ls=0.0,diis     5   -232.0097374714 -6.20D-02  1.02D-01  7.65D-02     2.1
                                                     1.68D-03  8.24D-02
 d= 0,ls=0.5,diis     6   -232.0319958366 -2.23D-02  5.49D-04  2.90D-02     2.5
                                                     3.41D-04  2.95D-02
 d= 0,ls=0.5,diis     7   -232.0383138838 -6.32D-03  1.12D-03  1.92D-02     3.0
                                                     6.26D-04  1.92D-02
 d= 0,ls=0.5,diis     8   -232.0455738467 -7.26D-03  1.28D-03  9.27D-03     3.4
                                                     5.79D-04  9.08D-03
 d= 0,ls=0.5,diis     9   -232.0499934450 -4.42D-03  1.31D-03  3.62D-03     3.8
                                                     4.78D-04  3.45D-03
 d= 0,ls=0.5,diis    10   -232.0520690151 -2.08D-03  1.27D-03  1.04D-03     4.2
                                                     3.37D-04  8.87D-04
 d= 0,ls=0.5,diis    11   -232.0528894186 -8.20D-04  1.26D-03  3.33D-04     4.6
                                                     2.10D-04  1.92D-04
 d= 0,ls=0.5,diis    12   -232.0532974663 -4.08D-04  1.35D-03  1.86D-04     5.1
                                                     1.37D-04  4.31D-05
 d= 0,ls=0.5,diis    13   -232.0536431885 -3.46D-04  1.52D-03  1.64D-04     5.5
                                                     1.16D-04  7.52D-06
 d= 0,ls=0.5,diis    14   -232.0540172807 -3.74D-04  1.69D-03  1.88D-04     5.9
                                                     7.16D-05  1.81D-05
 d= 0,ls=0.5,diis    15   -232.0544424692 -4.25D-04  2.03D-03  2.45D-04     6.3
                                                     1.08D-04  5.47D-05
 d= 0,ls=0.5,diis    16   -232.0549061108 -4.64D-04  2.42D-03  4.16D-04     6.7
                                                     1.11D-04  2.20D-04
 d= 0,ls=0.5,diis    17   -232.0554047651 -4.99D-04  2.74D-03  7.34D-04     7.1
                                                     5.50D-05  5.34D-04
 d= 0,ls=0.5,diis    18   -232.0560408971 -6.36D-04  2.97D-03  1.05D-03     7.6
                                                     5.11D-05  8.44D-04
 d= 0,ls=0.5,diis    19   -232.0569123840 -8.71D-04  3.18D-03  1.18D-03     8.0
                                                     8.79D-05  9.63D-04
 d= 0,ls=0.5,diis    20   -232.0579024457 -9.90D-04  3.19D-03  1.27D-03     8.4
                                                     1.73D-04  1.05D-03
 d= 0,ls=0.5,diis    21   -232.0590773156 -1.17D-03  3.17D-03  1.10D-03     8.8
                                                     2.04D-04  8.72D-04
 d= 0,ls=0.5,diis    22   -232.0602340063 -1.16D-03  3.66D-03  9.15D-04     9.2
                                                     7.11D-05  6.77D-04
 d= 0,ls=0.5,diis    23   -232.0610404208 -8.06D-04  3.90D-03  1.26D-03     9.6
                                                     6.73D-05  1.10D-03
 d= 0,ls=0.5,diis    24   -232.0617747031 -7.34D-04  3.75D-03  1.66D-03    10.1
                                                     1.59D-04  1.57D-03
 d= 0,ls=0.5,diis    25   -232.0627092050 -9.35D-04  3.16D-03  1.60D-03    10.5
                                                     2.84D-04  1.55D-03
 d= 0,ls=0.5,diis    26   -232.0638580673 -1.15D-03  2.89D-03  1.01D-03    10.9
                                                     2.36D-04  9.50D-04
 d= 0,ls=0.5,diis    27   -232.0646826690 -8.25D-04  2.09D-03  7.06D-04    11.3
                                                     3.63D-04  6.44D-04
 d= 0,ls=0.5,diis    28   -232.0654615816 -7.79D-04  1.91D-03  2.15D-04    11.7
                                                     2.22D-04  8.21D-05
 d= 0,ls=0.5,diis    29   -232.0658409965 -3.79D-04  1.48D-03  1.65D-04    12.2
                                                     2.31D-04  1.35D-05
 d= 0,ls=0.5,diis    30   -232.0660201892 -1.79D-04  1.28D-03  2.64D-04    12.6
                                                     1.71D-04  6.19D-05
 d= 0,ls=0.5,diis    31   -232.0661032862 -8.31D-05  1.00D-03  4.09D-04    13.0
                                                     2.71D-04  1.71D-04
 d= 0,ls=0.5,diis    32   -232.0656250313  4.78D-04  8.91D-04  1.19D-03    13.5
                                                     1.60D-04  8.04D-04
 d= 0,ls=0.5,diis    33   -232.0652301593  3.95D-04  7.35D-04  1.77D-03    13.9
                                                     5.43D-05  1.28D-03
 d= 0,ls=0.5,diis    34   -232.0653502615 -1.20D-04  6.94D-04  1.65D-03    14.3
                                                     3.69D-05  1.17D-03
 d= 0,ls=0.5,diis    35   -232.0653754389 -2.52D-05  6.88D-04  1.67D-03    14.7
                                                     2.53D-05  1.19D-03
 d= 0,ls=0.5,diis    36   -232.0654777914 -1.02D-04  6.70D-04  1.59D-03    15.2
                                                     2.66D-05  1.12D-03
 d= 0,ls=0.5,diis    37   -232.0656809635 -2.03D-04  6.93D-04  1.39D-03    15.6
                                                     2.71D-05  9.58D-04
 d= 0,ls=0.5,diis    38   -232.0658766096 -1.96D-04  8.64D-04  1.21D-03    16.0
                                                     8.07D-05  8.20D-04
 d= 0,ls=0.5,diis    39   -232.0662877003 -4.11D-04  9.40D-04  7.90D-04    16.4
                                                     4.95D-05  4.86D-04
 d= 0,ls=0.5,diis    40   -232.0665582546 -2.71D-04  1.06D-03  5.75D-04    16.9
                                                     5.57D-05  3.28D-04
 d= 0,ls=0.5,diis    41   -232.0668285252 -2.70D-04  1.15D-03  3.59D-04    17.3
                                                     5.34D-05  1.74D-04
 d= 0,ls=0.5,diis    42   -232.0670793915 -2.51D-04  1.08D-03  1.72D-04    17.7
                                                     1.93D-05  4.74D-05
 d= 0,ls=0.5,diis    43   -232.0672346452 -1.55D-04  8.55D-04  1.11D-04    18.1
                                                     6.39D-05  1.77D-05
 d= 0,ls=0.5,diis    44   -232.0672912386 -5.66D-05  7.54D-04  1.51D-04    18.5
                                                     5.82D-05  5.25D-05
 d= 0,ls=0.5,diis    45   -232.0673258944 -3.47D-05  6.30D-04  1.97D-04    18.9
                                                     5.74D-05  9.50D-05
 d= 0,ls=0.5,diis    46   -232.0673365981 -1.07D-05  5.55D-04  2.52D-04    19.3
                                                     6.17D-05  1.43D-04
 d= 0,ls=0.5,diis    47   -232.0673080834  2.85D-05  5.27D-04  3.43D-04    19.7
                                                     5.29D-05  2.23D-04
 d= 0,ls=0.5,diis    48   -232.0672702525  3.78D-05  4.71D-04  4.34D-04    20.2
                                                     3.66D-05  3.06D-04
 d= 0,ls=0.5,diis    49   -232.0672541112  1.61D-05  4.57D-04  4.86D-04    20.6
                                                     2.95D-05  3.52D-04
 d= 0,ls=0.5,diis    50   -232.0672398565  1.43D-05  4.43D-04  5.30D-04    21.0
                                                     1.78D-05  3.93D-04
 d= 0,ls=0.5,diis    51   -232.0673022815 -6.24D-05  5.25D-04  4.70D-04    21.4
                                                     5.91D-05  3.40D-04
 d= 0,ls=0.5,diis    52   -232.0674805157 -1.78D-04  5.13D-04  2.60D-04    21.8
                                                     2.30D-05  1.59D-04
 d= 0,ls=0.5,diis    53   -232.0675637286 -8.32D-05  5.36D-04  1.97D-04    22.2
                                                     1.93D-05  1.13D-04
 d= 0,ls=0.5,diis    54   -232.0676186924 -5.50D-05  5.42D-04  1.71D-04    22.6
                                                     1.87D-05  9.76D-05
 d= 0,ls=0.5,diis    55   -232.0676571080 -3.84D-05  5.01D-04  1.61D-04    23.0
                                                     1.13D-05  9.59D-05
 d= 0,ls=0.5,diis    56   -232.0676963541 -3.92D-05  4.85D-04  1.45D-04    23.5
                                                     7.20D-06  8.56D-05
 d= 0,ls=0.5,diis    57   -232.0677359379 -3.96D-05  4.83D-04  1.24D-04    23.9
                                                     6.76D-06  7.20D-05
 d= 0,ls=0.5,diis    58   -232.0677766688 -4.07D-05  3.95D-04  9.91D-05    24.3
                                                     3.42D-05  5.52D-05
 d= 0,ls=0.5,diis    59   -232.0677721896  4.48D-06  3.47D-04  1.31D-04    24.7
                                                     2.94D-05  8.46D-05
 d= 0,ls=0.5,diis    60   -232.0677635907  8.60D-06  3.27D-04  1.63D-04    25.1
                                                     2.90D-05  1.14D-04
 d= 0,ls=0.5,diis    61   -232.0677467390  1.69D-05  2.94D-04  2.00D-04    25.5
                                                     1.21D-05  1.49D-04
 d= 0,ls=0.5,diis    62   -232.0677592305 -1.25D-05  2.86D-04  1.94D-04    25.9
                                                     1.70D-05  1.44D-04
 d= 0,ls=0.5,diis    63   -232.0677528852  6.35D-06  2.67D-04  2.13D-04    26.4
                                                     6.00D-06  1.61D-04
 d= 0,ls=0.5,diis    64   -232.0677737953 -2.09D-05  2.66D-04  1.95D-04    26.8
                                                     6.25D-06  1.46D-04
 d= 0,ls=0.5,diis    65   -232.0677934570 -1.97D-05  3.81D-04  1.79D-04    27.2
                                                     4.32D-05  1.33D-04
 d= 0,ls=0.5,diis    66   -232.0678711029 -7.76D-05  3.63D-04  9.03D-05    27.6
                                                     1.31D-05  5.69D-05
 d= 0,ls=0.5,diis    67   -232.0679014191 -3.03D-05  3.98D-04  6.80D-05    28.0
                                                     1.56D-05  4.09D-05
 d= 0,ls=0.5,diis    68   -232.0679346509 -3.32D-05  3.20D-04  4.09D-05    28.4
                                                     1.80D-05  2.03D-05
 d= 0,ls=0.5,diis    69   -232.0679434171 -8.77D-06  2.86D-04  4.50D-05    28.8
                                                     2.89D-05  2.55D-05
 d= 0,ls=0.5,diis    70   -232.0679362993  7.12D-06  2.69D-04  6.76D-05    29.2
                                                     8.27D-06  4.64D-05
 d= 0,ls=0.5,diis    71   -232.0679490392 -1.27D-05  2.82D-04  5.99D-05    29.7
                                                     1.69D-05  4.01D-05
 d= 0,ls=0.5,diis    72   -232.0679734127 -2.44D-05  2.25D-04  3.65D-05    30.1
                                                     2.77D-05  2.06D-05
 d= 0,ls=0.5,diis    73   -232.0679630761  1.03D-05  2.04D-04  6.01D-05    30.5
                                                     1.89D-05  4.20D-05
 d= 0,ls=0.5,diis    74   -232.0679559303  7.15D-06  1.88D-04  7.61D-05    30.9
                                                     1.22D-05  5.65D-05
 d= 0,ls=0.5,diis    75   -232.0679536578  2.27D-06  1.77D-04  8.36D-05    31.3
                                                     5.48D-06  6.33D-05
 d= 0,ls=0.5,diis    76   -232.0679649387 -1.13D-05  2.00D-04  7.24D-05    31.7
                                                     1.12D-05  5.33D-05
 d= 0,ls=0.5,diis    77   -232.0679829963 -1.81D-05  2.75D-04  5.33D-05    32.2
                                                     2.94D-05  3.75D-05
 d= 0,ls=0.5,diis    78   -232.0680124153 -2.94D-05  2.53D-04  2.02D-05    32.6
                                                     1.01D-05  9.83D-06
 d= 0,ls=0.5,diis    79   -232.0680230338 -1.06D-05  1.95D-04  1.46D-05    33.0
                                                     2.22D-05  6.46D-06
 d= 0,ls=0.5,diis    80   -232.0680201277  2.91D-06  1.78D-04  2.54D-05    33.4
                                                     1.57D-05  1.62D-05
 d= 0,ls=0.5,diis    81   -232.0680179794  2.15D-06  1.83D-04  3.32D-05    33.9
                                                     7.56D-06  2.35D-05
 d= 0,ls=0.5,diis    82   -232.0680280344 -1.01D-05  1.67D-04  2.34D-05    34.3
                                                     1.06D-05  1.51D-05
 d= 0,ls=0.5,diis    83   -232.0680280237  1.07D-08  1.56D-04  2.73D-05    34.7
                                                     5.57D-06  1.90D-05
 d= 0,ls=0.5,diis    84   -232.0680304391 -2.42D-06  1.49D-04  2.75D-05    35.2
                                                     2.41D-06  1.96D-05
 d= 0,ls=0.5,diis    85   -232.0680347527 -4.31D-06  1.44D-04  2.47D-05    35.6
                                                     3.30D-06  1.73D-05
 d= 0,ls=0.5,diis    86   -232.0680377169 -2.96D-06  1.46D-04  2.37D-05    36.0
                                                     2.24D-06  1.68D-05
 d= 0,ls=0.5,diis    87   -232.0680418330 -4.12D-06  1.40D-04  2.10D-05    36.4
                                                     3.74D-06  1.48D-05
 d= 0,ls=0.5,diis    88   -232.0680455391 -3.71D-06  1.37D-04  1.86D-05    36.8
                                                     2.75D-06  1.30D-05
 d= 0,ls=0.5,diis    89   -232.0680492522 -3.71D-06  1.29D-04  1.65D-05    37.2
                                                     9.59D-06  1.14D-05
 d= 0,ls=0.5,diis    90   -232.0680479013  1.35D-06  1.22D-04  2.08D-05    37.6
                                                     1.02D-05  1.55D-05
 d= 0,ls=0.5,diis    91   -232.0680453356  2.57D-06  1.14D-04  2.60D-05    38.0
                                                     5.30D-06  2.04D-05
 d= 0,ls=0.5,diis    92   -232.0680503662 -5.03D-06  1.09D-04  2.03D-05    38.4
                                                     6.27D-06  1.52D-05
 d= 0,ls=0.5,diis    93   -232.0680495050  8.61D-07  1.04D-04  2.32D-05    38.9
                                                     5.91D-06  1.79D-05
 d= 0,ls=0.5,diis    94   -232.0680484090  1.10D-06  9.80D-05  2.60D-05    39.3
                                                     3.09D-06  2.06D-05
 d= 0,ls=0.5,diis    95   -232.0680517574 -3.35D-06  1.10D-04  2.23D-05    39.7
                                                     1.06D-05  1.73D-05
 d= 0,ls=0.5,diis    96   -232.0680588217 -7.06D-06  1.10D-04  1.43D-05    40.1
                                                     5.62D-06  1.02D-05
 d= 0,ls=0.5,diis    97   -232.0680630795 -4.26D-06  1.20D-04  1.03D-05    40.5
                                                     7.00D-06  6.77D-06
 d= 0,ls=0.5,diis    98   -232.0680675842 -4.50D-06  1.20D-04  5.96D-06    40.9
                                                     4.86D-06  3.30D-06
 d= 0,ls=0.5,diis    99   -232.0680704974 -2.91D-06  9.59D-05  4.05D-06    41.3
                                                     1.06D-05  2.01D-06
 d= 0,ls=0.5,diis   100   -232.0680696393  8.58D-07  1.03D-04  6.93D-06    41.8
                                                     2.64D-06  4.68D-06
 d= 0,ls=0.5,diis   101   -232.0680720506 -2.41D-06  8.62D-05  4.82D-06    42.2
                                                     4.31D-06  2.87D-06
 d= 0,ls=0.5,diis   102   -232.0680726610 -6.10D-07  8.12D-05  5.11D-06    42.6
                                                     3.82D-06  3.22D-06
 d= 0,ls=0.5,diis   103   -232.0680730949 -4.34D-07  7.74D-05  5.53D-06    43.0
                                                     2.22D-06  3.69D-06
 d= 0,ls=0.5,diis   104   -232.0680738844 -7.90D-07  7.30D-05  5.31D-06    43.4
                                                     3.28D-06  3.58D-06
 d= 0,ls=0.5,diis   105   -232.0680742189 -3.34D-07  6.80D-05  5.63D-06    43.8
                                                     2.82D-06  3.93D-06
 d= 0,ls=0.5,diis   106   -232.0680745433 -3.24D-07  6.57D-05  5.89D-06    44.2
                                                     3.46D-06  4.20D-06
 d= 0,ls=0.5,diis   107   -232.0680747036 -1.60D-07  6.92D-05  6.21D-06    44.7
                                                     4.03D-06  4.58D-06
 d= 0,ls=0.5,diis   108   -232.0680766158 -1.91D-06  8.05D-05  4.13D-06    45.1
                                                     3.29D-06  2.78D-06
 d= 0,ls=0.5,diis   109   -232.0680781846 -1.57D-06  6.37D-05  2.87D-06    45.6
                                                     5.03D-06  1.84D-06
 d= 0,ls=0.5,diis   110   -232.0680779107  2.74D-07  6.24D-05  3.90D-06    46.0
                                                     5.00D-06  2.80D-06
 d= 0,ls=0.5,diis   111   -232.0680775323  3.78D-07  5.71D-05  4.87D-06    46.4
                                                     3.07D-06  3.75D-06
 d= 0,ls=0.5,diis   112   -232.0680775108  2.15D-08  5.67D-05  5.27D-06    46.8
                                                     4.08D-06  4.14D-06
 d= 0,ls=0.5,diis   113   -232.0680769926  5.18D-07  5.36D-05  6.25D-06    47.2
                                                     1.42D-06  5.05D-06
 d= 0,ls=0.5,diis   114   -232.0680773292 -3.37D-07  5.73D-05  6.00D-06    47.7
                                                     6.81D-06  4.84D-06
 d= 0,ls=0.5,diis   115   -232.0680795406 -2.21D-06  5.65D-05  3.34D-06    48.1
                                                     3.01D-06  2.38D-06
 d= 0,ls=0.5,diis   116   -232.0680805923 -1.05D-06  6.35D-05  2.44D-06    48.5
                                                     4.27D-06  1.65D-06
 d= 0,ls=0.5,diis   117   -232.0680818069 -1.21D-06  5.48D-05  1.28D-06    48.9
                                                     2.06D-06  6.92D-07
 d= 0,ls=0.5,diis   118   -232.0680822147 -4.08D-07  4.95D-05  1.22D-06    49.3
                                                     5.19D-06  6.96D-07
 d= 0,ls=0.5,diis   119   -232.0680819290  2.86D-07  4.68D-05  2.05D-06    49.7
                                                     2.77D-06  1.47D-06
 d= 0,ls=0.5,diis   120   -232.0680819577 -2.87D-08  4.40D-05  2.29D-06    50.1
                                                     1.91D-06  1.72D-06
 d= 0,ls=0.5,diis   121   -232.0680820839 -1.26D-07  4.47D-05  2.36D-06    50.6
                                                     1.49D-06  1.80D-06
 d= 0,ls=0.5,diis   122   -232.0680826771 -5.93D-07  4.31D-05  1.75D-06    51.0
                                                     2.02D-06  1.25D-06
 d= 0,ls=0.5,diis   123   -232.0680832394 -5.62D-07  3.63D-05  1.20D-06    51.4
                                                     3.29D-06  7.64D-07
 d= 0,ls=0.5,diis   124   -232.0680830586  1.81D-07  3.34D-05  1.68D-06    51.8
                                                     2.09D-06  1.21D-06
 d= 0,ls=0.5,diis   125   -232.0680829927  6.60D-08  3.15D-05  1.94D-06    52.2
                                                     1.19D-06  1.44D-06
 d= 0,ls=0.5,diis   126   -232.0680830571 -6.45D-08  4.44D-05  1.99D-06    52.7
                                                     5.67D-06  1.49D-06
 d= 0,ls=0.5,diis   127   -232.0680840643 -1.01D-06  4.29D-05  7.72D-07    53.1
                                                     2.19D-06  4.44D-07
 d= 0,ls=0.5,diis   128   -232.0680844852 -4.21D-07  3.60D-05  4.08D-07    53.5
                                                     3.17D-06  1.79D-07
 d= 0,ls=0.5,diis   129   -232.0680844568  2.84D-08  3.14D-05  6.68D-07    53.9
                                                     2.11D-06  4.16D-07
 d= 0,ls=0.5,diis   130   -232.0680844537  3.10D-09  2.80D-05  8.23D-07    54.4
                                                     2.30D-06  5.67D-07
 d= 0,ls=0.5,diis   131   -232.0680843950  5.87D-08  2.70D-05  1.02D-06    54.8
                                                     1.15D-06  7.50D-07
 d= 0,ls=0.5,diis   132   -232.0680844519 -5.69D-08  2.55D-05  1.03D-06    55.2
                                                     1.06D-06  7.62D-07
 d= 0,ls=0.5,diis   133   -232.0680844875 -3.57D-08  2.48D-05  1.05D-06    55.6
                                                     5.52D-07  7.97D-07
 d= 0,ls=0.5,diis   134   -232.0680845721 -8.45D-08  2.40D-05  1.01D-06    56.0
                                                     3.02D-07  7.68D-07
 d= 0,ls=0.5,diis   135   -232.0680846808 -1.09D-07  2.44D-05  9.38D-07    56.4
                                                     7.42D-07  7.08D-07
 d= 0,ls=0.5,diis   136   -232.0680848649 -1.84D-07  2.58D-05  7.63D-07    56.9
                                                     9.81D-07  5.61D-07
 d= 0,ls=0.5,diis   137   -232.0680850036 -1.39D-07  2.59D-05  6.55D-07    57.3
                                                     9.97D-07  4.82D-07
 d= 0,ls=0.5,diis   138   -232.0680851960 -1.92D-07  2.66D-05  4.83D-07    57.7
                                                     5.92D-07  3.34D-07
 d= 0,ls=0.5,diis   139   -232.0680853525 -1.57D-07  2.52D-05  3.62D-07    58.1
                                                     3.72D-07  2.38D-07
 d= 0,ls=0.5,diis   140   -232.0680854596 -1.07D-07  2.43D-05  3.02D-07    58.5
                                                     3.26D-07  1.94D-07
 d= 0,ls=0.5,diis   141   -232.0680855656 -1.06D-07  2.37D-05  2.36D-07    58.9
                                                     5.47D-07  1.43D-07
 d= 0,ls=0.5,diis   142   -232.0680856540 -8.84D-08  2.20D-05  1.93D-07    59.3
                                                     5.03D-07  1.07D-07
 d= 0,ls=0.5,diis   143   -232.0680857157 -6.17D-08  2.00D-05  1.76D-07    59.7
                                                     1.36D-06  9.85D-08
 d= 0,ls=0.5,diis   144   -232.0680857233 -7.57D-09  1.81D-05  2.26D-07    60.2
                                                     8.63D-07  1.48D-07
 d= 0,ls=0.5,diis   145   -232.0680857517 -2.84D-08  1.72D-05  2.30D-07    60.6
                                                     7.21D-07  1.52D-07
 d= 0,ls=0.5,diis   146   -232.0680857736 -2.19D-08  1.67D-05  2.40D-07    61.0
                                                     6.09D-07  1.63D-07
 d= 0,ls=0.5,diis   147   -232.0680858025 -2.89D-08  1.52D-05  2.34D-07    61.4
                                                     3.76D-07  1.61D-07
 d= 0,ls=0.5,diis   148   -232.0680858465 -4.40D-08  1.52D-05  2.06D-07    61.8
                                                     3.43D-07  1.39D-07
 d= 0,ls=0.5,diis   149   -232.0680858770 -3.05D-08  1.57D-05  1.99D-07    62.2
                                                     1.15D-06  1.34D-07
 d= 0,ls=0.5,diis   150   -232.0680858608  1.62D-08  1.47D-05  2.57D-07    62.6
                                                     7.29D-07  1.90D-07
 d= 0,ls=0.5,diis   151   -232.0680858683 -7.44D-09  1.42D-05  2.72D-07    63.1
                                                     4.14D-07  2.07D-07
 d= 0,ls=0.5,diis   152   -232.0680858931 -2.49D-08  1.36D-05  2.60D-07    63.5
                                                     2.78D-07  2.00D-07
 d= 0,ls=0.5,diis   153   -232.0680859210 -2.79D-08  1.32D-05  2.44D-07    63.9
                                                     6.69D-07  1.88D-07
 d= 0,ls=0.5,diis   154   -232.0680859133  7.74D-09  1.40D-05  2.77D-07    64.3
                                                     1.13D-06  2.21D-07
 d= 0,ls=0.5,diis   155   -232.0680858728  4.05D-08  1.27D-05  3.46D-07    64.7
                                                     5.20D-07  2.90D-07
 d= 0,ls=0.5,diis   156   -232.0680858689  3.83D-09  1.15D-05  3.60D-07    65.1
                                                     3.13D-07  3.04D-07
 d= 0,ls=0.5,diis   157   -232.0680859040 -3.51D-08  1.09D-05  3.19D-07    65.6
                                                     4.88D-07  2.67D-07
 d= 0,ls=0.5,diis   158   -232.0680859550 -5.10D-08  1.09D-05  2.61D-07    66.0
                                                     2.70D-07  2.13D-07
 d= 0,ls=0.5,diis   159   -232.0680859887 -3.37D-08  1.06D-05  2.31D-07    66.4
                                                     2.71D-07  1.86D-07
 d= 0,ls=0.5,diis   160   -232.0680860155 -2.68D-08  1.06D-05  2.10D-07    66.8
                                                     1.92D-07  1.69D-07
 d= 0,ls=0.5,diis   161   -232.0680860404 -2.49D-08  1.06D-05  1.92D-07    67.2
                                                     3.42D-07  1.54D-07
 d= 0,ls=0.5,diis   162   -232.0680860805 -4.01D-08  1.06D-05  1.49D-07    67.6
                                                     4.17D-07  1.16D-07
 d= 0,ls=0.5,diis   163   -232.0680861173 -3.67D-08  1.18D-05  1.17D-07    68.0
                                                     9.81D-07  8.78D-08
 d= 0,ls=0.5,diis   164   -232.0680861657 -4.84D-08  1.04D-05  6.63D-08    68.5
                                                     4.26D-07  4.20D-08
 d= 0,ls=0.5,diis   165   -232.0680861881 -2.24D-08  1.04D-05  5.12D-08    68.9
                                                     2.34D-07  2.97D-08
 d= 0,ls=0.5,diis   166   -232.0680862074 -1.94D-08  1.01D-05  3.98D-08    69.3
                                                     1.77D-07  2.12D-08
 d= 0,ls=0.5,diis   167   -232.0680862229 -1.54D-08  9.64D-06  3.38D-08    69.7
                                                     1.73D-07  1.78D-08
 d= 0,ls=0.5,diis   168   -232.0680862354 -1.25D-08  8.69D-06  2.91D-08    70.1
                                                     3.15D-07  1.49D-08
 d= 0,ls=0.5,diis   169   -232.0680862434 -7.99D-09  7.48D-06  2.91D-08    70.5
                                                     6.38D-07  1.56D-08
 d= 0,ls=0.5,diis   170   -232.0680862424  9.80D-10  6.84D-06  3.93D-08    71.0
                                                     7.80D-07  2.48D-08
 d= 0,ls=0.5,diis   171   -232.0680862336  8.80D-09  6.12D-06  5.81D-08    71.4
                                                     2.71D-07  4.19D-08
 d= 0,ls=0.5,diis   172   -232.0680862385 -4.91D-09  5.87D-06  5.57D-08    71.8
                                                     1.70D-07  3.94D-08
 d= 0,ls=0.5,diis   173   -232.0680862433 -4.76D-09  5.68D-06  5.39D-08    72.3
                                                     2.22D-07  3.79D-08
 d= 0,ls=0.5,diis   174   -232.0680862452 -1.96D-09  5.51D-06  5.57D-08    72.7
                                                     1.47D-07  3.98D-08
 d= 0,ls=0.5,diis   175   -232.0680862494 -4.14D-09  5.48D-06  5.46D-08    73.1
                                                     1.02D-07  3.92D-08
 d= 0,ls=0.5,diis   176   -232.0680862541 -4.69D-09  5.76D-06  5.22D-08    73.5
                                                     3.04D-07  3.75D-08
 d= 0,ls=0.5,diis   177   -232.0680862673 -1.32D-08  6.32D-06  3.90D-08    74.0
                                                     2.73D-07  2.66D-08
 d= 0,ls=0.5,diis   178   -232.0680862785 -1.12D-08  6.76D-06  2.83D-08    74.4
                                                     2.92D-07  1.83D-08
 d= 0,ls=0.5,diis   179   -232.0680862894 -1.10D-08  6.43D-06  1.90D-08    74.8
                                                     1.11D-07  1.12D-08
 d= 0,ls=0.5,diis   180   -232.0680862952 -5.81D-09  5.92D-06  1.66D-08    75.2
                                                     1.63D-07  9.77D-09
 d= 0,ls=0.5,diis   181   -232.0680862990 -3.73D-09  5.06D-06  1.63D-08    75.6
                                                     5.51D-07  1.02D-08
 d= 0,ls=0.5,diis   182   -232.0680862952  3.73D-09  5.25D-06  2.54D-08    76.0
                                                     4.13D-07  1.86D-08
 d= 0,ls=0.5,diis   183   -232.0680863056 -1.04D-08  4.73D-06  1.35D-08    76.5
                                                     3.70D-07  8.19D-09
 d= 0,ls=0.5,diis   184   -232.0680863047  8.97D-10  4.44D-06  1.78D-08    76.9
                                                     2.30D-07  1.24D-08
 d= 0,ls=0.5,diis   185   -232.0680863050 -3.02D-10  4.17D-06  2.00D-08    77.3
                                                     8.70D-08  1.48D-08
 d= 0,ls=0.5,diis   186   -232.0680863081 -3.01D-09  4.00D-06  1.79D-08    77.7
                                                     1.04D-07  1.30D-08
 d= 0,ls=0.5,diis   187   -232.0680863125 -4.45D-09  3.98D-06  1.40D-08    78.1
                                                     1.56D-07  9.51D-09
 d= 0,ls=0.5,diis   188   -232.0680863133 -7.86D-10  4.09D-06  1.53D-08    78.5
                                                     1.36D-07  1.10D-08
 d= 0,ls=0.5,diis   189   -232.0680863172 -3.87D-09  4.05D-06  1.25D-08    78.9
                                                     1.97D-07  8.70D-09
 d= 0,ls=0.5,diis   190   -232.0680863177 -5.30D-10  3.65D-06  1.40D-08    79.4
                                                     1.59D-07  1.05D-08
 d= 0,ls=0.5,diis   191   -232.0680863182 -5.25D-10  3.44D-06  1.50D-08    79.8
                                                     1.31D-07  1.15D-08
 d= 0,ls=0.5,diis   192   -232.0680863188 -6.24D-10  3.40D-06  1.57D-08    80.2
                                                     1.13D-07  1.21D-08
 d= 0,ls=0.5,diis   193   -232.0680863221 -3.26D-09  3.29D-06  1.25D-08    80.6
                                                     6.98D-08  9.18D-09
 d= 0,ls=0.5,diis   194   -232.0680863236 -1.48D-09  3.11D-06  1.19D-08    81.0
                                                     7.75D-08  8.78D-09
 d= 0,ls=0.5,diis   195   -232.0680863248 -1.17D-09  2.97D-06  1.17D-08    81.4
                                                     9.36D-08  8.73D-09
 d= 0,ls=0.5,diis   196   -232.0680863256 -8.78D-10  2.81D-06  1.17D-08    81.8
                                                     6.99D-08  8.85D-09
 d= 0,ls=0.5,diis   197   -232.0680863267 -1.07D-09  2.86D-06  1.13D-08    82.3
                                                     4.34D-08  8.61D-09
 d= 0,ls=0.5,diis   198   -232.0680863284 -1.74D-09  2.71D-06  9.98D-09    82.7
                                                     2.68D-08  7.48D-09
 d= 0,ls=0.5,diis   199   -232.0680863300 -1.51D-09  2.66D-06  8.85D-09    83.1
                                                     1.16D-07  6.52D-09
 d= 0,ls=0.5,diis   200   -232.0680863302 -2.27D-10  2.48D-06  9.55D-09    83.5
                                                     1.41D-07  7.39D-09
 d= 0,ls=0.5,diis   201   -232.0680863298  3.93D-10  2.34D-06  1.09D-08    83.9
                                                     9.63D-08  8.63D-09
 d= 0,ls=0.5,diis   202   -232.0680863298 -5.22D-11  2.25D-06  1.14D-08    84.4
                                                     8.67D-08  9.15D-09
 d= 0,ls=0.5,diis   203   -232.0680863299 -1.20D-11  2.09D-06  1.19D-08    84.8
                                                     5.28D-08  9.68D-09
 d= 0,ls=0.5,diis   204   -232.0680863303 -4.14D-10  1.96D-06  1.18D-08    85.2
                                                     3.24D-08  9.53D-09
 d= 0,ls=0.5,diis   205   -232.0680863309 -5.96D-10  1.88D-06  1.14D-08    85.6
                                                     2.73D-08  9.15D-09
 d= 0,ls=0.5,diis   206   -232.0680863313 -4.71D-10  2.37D-06  1.11D-08    86.0
                                                     2.60D-07  8.97D-09
 d= 0,ls=0.5,diis   207   -232.0680863350 -3.67D-09  2.35D-06  6.78D-09    86.4
                                                     1.18D-07  5.13D-09
 d= 0,ls=0.5,diis   208   -232.0680863363 -1.31D-09  2.05D-06  5.79D-09    86.9
                                                     1.41D-07  4.37D-09
 d= 0,ls=0.5,diis   209   -232.0680863362  1.29D-10  2.27D-06  6.58D-09    87.3
                                                     1.25D-07  5.25D-09
 d= 0,ls=0.5,diis   210   -232.0680863382 -1.97D-09  2.03D-06  4.43D-09    87.7
                                                     6.19D-08  3.33D-09
 d= 0,ls=0.5,diis   211   -232.0680863386 -4.54D-10  1.87D-06  4.49D-09    88.1
                                                     8.98D-08  3.48D-09
 d= 0,ls=0.5,diis   212   -232.0680863387 -1.03D-10  1.69D-06  4.89D-09    88.5
                                                     8.98D-08  3.91D-09
 d= 0,ls=0.5,diis   213   -232.0680863387 -1.59D-11  1.60D-06  5.27D-09    88.9
                                                     9.56D-08  4.30D-09
 d= 0,ls=0.5,diis   214   -232.0680863386  1.55D-10  1.52D-06  5.82D-09    89.4
                                                     6.61D-08  4.84D-09
 d= 0,ls=0.5,diis   215   -232.0680863386 -3.75D-11  1.55D-06  6.05D-09    89.8
                                                     2.02D-07  5.08D-09
 d= 0,ls=0.5,diis   216   -232.0680863405 -1.91D-09  1.65D-06  3.51D-09    90.2
                                                     1.26D-07  2.64D-09
 d= 0,ls=0.5,diis   217   -232.0680863417 -1.19D-09  1.89D-06  2.27D-09    90.6
                                                     1.17D-07  1.55D-09
 d= 0,ls=0.5,diis   218   -232.0680863428 -1.04D-09  1.48D-06  1.33D-09    91.1
                                                     1.16D-07  7.73D-10
 d= 0,ls=0.5,diis   219   -232.0680863427  4.65D-11  1.30D-06  1.83D-09    91.5
                                                     9.72D-08  1.25D-09
 d= 0,ls=0.5,diis   220   -232.0680863426  1.06D-10  1.17D-06  2.29D-09    91.9
                                                     8.90D-08  1.69D-09
 d= 0,ls=0.5,diis   221   -232.0680863425  1.08D-10  1.09D-06  2.69D-09    92.4
                                                     6.53D-08  2.06D-09
 d= 0,ls=0.5,diis   222   -232.0680863425  3.96D-11  1.01D-06  2.92D-09    92.8
                                                     3.87D-08  2.28D-09
 d= 0,ls=0.5,diis   223   -232.0680863425 -7.48D-11  1.28D-06  2.97D-09    93.2
                                                     1.32D-07  2.33D-09
 d= 0,ls=0.5,diis   224   -232.0680863436 -1.04D-09  1.03D-06  1.68D-09    93.6
                                                     4.23D-08  1.17D-09
 d= 0,ls=0.5,diis   225   -232.0680863437 -1.36D-10  1.01D-06  1.69D-09    94.1
                                                     2.89D-08  1.19D-09
 d= 0,ls=0.5,diis   226   -232.0680863439 -1.97D-10  9.72D-07  1.61D-09    94.5
                                                     2.13D-08  1.14D-09
 d= 0,ls=0.5,diis   227   -232.0680863441 -1.73D-10  9.23D-07  1.53D-09    94.9
                                                     2.33D-08  1.08D-09
 d= 0,ls=0.5,diis   228   -232.0680863442 -1.42D-10  1.11D-06  1.48D-09    95.3
                                                     6.64D-08  1.06D-09
 d= 0,ls=0.5,diis   229   -232.0680863447 -4.93D-10  1.09D-06  9.52D-10    95.7
                                                     1.93D-08  6.29D-10
 d= 0,ls=0.5,diis   230   -232.0680863450 -2.64D-10  1.03D-06  7.69D-10    96.2
                                                     1.01D-08  4.97D-10
 d= 0,ls=0.5,diis   231   -232.0680863452 -2.19D-10  8.98D-07  6.19D-10    96.6
                                                     5.47D-08  3.85D-10
 d= 0,ls=0.5,diis   232   -232.0680863452 -2.26D-11  8.12D-07  7.21D-10    97.0
                                                     4.74D-08  4.92D-10
 d= 0,ls=0.5,diis   233   -232.0680863452 -1.94D-11  7.46D-07  8.05D-10    97.4
                                                     5.22D-08  5.75D-10
 d= 0,ls=0.5,diis   234   -232.0680863452  2.61D-11  7.02D-07  9.30D-10    97.8
                                                     5.95D-08  7.03D-10
 d= 0,ls=0.5,diis   235   -232.0680863451  8.47D-11  6.71D-07  1.11D-09    98.2
                                                     4.84D-08  8.81D-10
 d= 0,ls=0.5,diis   236   -232.0680863451  7.11D-11  6.29D-07  1.26D-09    98.7
                                                     2.66D-08  1.02D-09
 d= 0,ls=0.5,diis   237   -232.0680863451 -1.63D-11  6.12D-07  1.27D-09    99.1
                                                     1.79D-08  1.04D-09
 d= 0,ls=0.5,diis   238   -232.0680863451 -3.48D-11  6.45D-07  1.27D-09    99.5
                                                     6.58D-08  1.05D-09
 d= 0,ls=0.5,diis   239   -232.0680863454 -3.34D-10  1.01D-06  8.75D-10    99.9
                                                     1.26D-07  6.76D-10
 d= 0,ls=0.5,diis   240   -232.0680863459 -4.64D-10  8.19D-07  3.63D-10   100.3
                                                     3.96D-08  2.29D-10
 d= 0,ls=0.5,diis   241   -232.0680863461 -1.54D-10  7.62D-07  2.26D-10   100.8
                                                     3.83D-08  1.12D-10
 d= 0,ls=0.5,diis   242   -232.0680863461 -4.49D-11  7.56D-07  2.56D-10   101.2
                                                     1.48D-08  1.46D-10
 d= 0,ls=0.5,diis   243   -232.0680863462 -1.00D-10  6.19D-07  2.01D-10   101.6
                                                     7.45D-08  1.09D-10
 d= 0,ls=0.5,diis   244   -232.0680863461  5.70D-11  5.85D-07  3.47D-10   102.0
                                                     3.91D-08  2.40D-10
 d= 0,ls=0.5,diis   245   -232.0680863461  0.00D+00  5.73D-07  3.95D-10   102.4
                                                     2.42D-08  2.87D-10
 d= 0,ls=0.5,diis   246   -232.0680863463 -1.06D-10  5.02D-07  2.86D-10   102.8
                                                     3.34D-08  1.90D-10
 d= 0,ls=0.5,diis   247   -232.0680863462  5.29D-12  4.65D-07  3.35D-10   103.3
                                                     3.04D-08  2.34D-10
 d= 0,ls=0.5,diis   248   -232.0680863462  1.19D-11  4.35D-07  3.87D-10   103.7
                                                     1.89D-08  2.81D-10
 d= 0,ls=0.5,diis   249   -232.0680863462 -8.87D-12  7.61D-07  4.03D-10   104.1
                                                     1.10D-07  2.95D-10
 d= 0,ls=0.5,diis   250   -232.0680863465 -2.46D-10  4.73D-07  1.06D-10   104.5
                                                     6.00D-08  4.79D-11
 d= 0,ls=0.5,diis   251   -232.0680863465  2.81D-11  5.72D-07  1.86D-10   104.9
                                                     3.34D-08  1.19D-10
 d= 0,ls=0.5,diis   252   -232.0680863465 -8.48D-11  4.45D-07  1.01D-10   105.3
                                                     4.19D-08  5.35D-11
 d= 0,ls=0.5,diis   253   -232.0680863465  1.08D-11  4.23D-07  1.52D-10   105.8
                                                     4.15D-08  1.00D-10
 d= 0,ls=0.5,diis   254   -232.0680863465  2.59D-11  3.83D-07  2.13D-10   106.2
                                                     2.37D-08  1.57D-10
 d= 0,ls=0.5,diis   255   -232.0680863465  2.79D-12  3.72D-07  2.37D-10   106.6
                                                     9.59D-09  1.79D-10
 d= 0,ls=0.5,diis   256   -232.0680863465 -3.74D-11  3.54D-07  2.00D-10   107.0
                                                     1.70D-08  1.46D-10
 d= 0,ls=0.5,diis   257   -232.0680863465 -9.09D-13  3.67D-07  2.18D-10   107.4
                                                     1.82D-08  1.65D-10
 d= 0,ls=0.5,diis   258   -232.0680863466 -5.51D-11  3.57D-07  1.57D-10   107.9
                                                     6.74D-09  1.14D-10
 d= 0,ls=0.5,diis   259   -232.0680863466 -2.18D-11  3.62D-07  1.45D-10   108.3
                                                     1.77D-08  1.07D-10
 d= 0,ls=0.5,diis   260   -232.0680863466 -3.58D-12  3.45D-07  1.59D-10   108.7
                                                     8.20D-09  1.25D-10
 d= 0,ls=0.5,diis   261   -232.0680863466 -1.83D-11  3.34D-07  1.48D-10   109.1
                                                     3.21D-09  1.17D-10
 d= 0,ls=0.5,diis   262   -232.0680863467 -2.31D-11  3.15D-07  1.30D-10   109.5
                                                     9.72D-09  1.03D-10
 d= 0,ls=0.5,diis   263   -232.0680863467 -9.66D-12  3.06D-07  1.30D-10   110.0
                                                     1.87D-08  1.03D-10
 d= 0,ls=0.5,diis   264   -232.0680863467  6.93D-12  2.84D-07  1.51D-10   110.4
                                                     1.23D-08  1.25D-10
 d= 0,ls=0.5,diis   265   -232.0680863467 -1.19D-12  2.67D-07  1.56D-10   110.8
                                                     8.64D-09  1.30D-10
 d= 0,ls=0.5,diis   266   -232.0680863467 -2.22D-11  2.63D-07  1.32D-10   111.2
                                                     9.15D-09  1.07D-10
 d= 0,ls=0.5,diis   267   -232.0680863467 -2.56D-11  2.58D-07  1.06D-10   111.7
                                                     5.55D-09  8.33D-11
 d= 0,ls=0.5,diis   268   -232.0680863467 -1.70D-11  2.63D-07  9.44D-11   112.1
                                                     8.42D-09  7.35D-11
 d= 0,ls=0.5,diis   269   -232.0680863468 -2.19D-11  2.66D-07  7.53D-11   112.5
                                                     5.72D-09  5.60D-11
 d= 0,ls=0.5,diis   270   -232.0680863468 -1.85D-11  2.57D-07  6.05D-11   112.9
                                                     5.27D-09  4.33D-11
 d= 0,ls=0.5,diis   271   -232.0680863468 -1.57D-11  2.43D-07  4.96D-11   113.4
                                                     4.65D-09  3.35D-11
 d= 0,ls=0.5,diis   272   -232.0680863468 -1.02D-11  2.29D-07  4.53D-11   113.8
                                                     4.06D-09  2.97D-11
 d= 0,ls=0.5,diis   273   -232.0680863468 -9.04D-12  2.12D-07  4.08D-11   114.2
                                                     7.43D-09  2.59D-11
 d= 0,ls=0.5,diis   274   -232.0680863468 -4.89D-12  2.04D-07  4.21D-11   114.6
                                                     4.96D-09  2.74D-11
 d= 0,ls=0.5,diis   275   -232.0680863468 -6.48D-12  1.97D-07  3.91D-11   115.0
                                                     4.72D-09  2.55D-11
 d= 0,ls=0.5,diis   276   -232.0680863468 -6.59D-12  1.83D-07  3.61D-11   115.4
                                                     5.63D-09  2.32D-11
 d= 0,ls=0.5,diis   277   -232.0680863468 -4.26D-12  1.80D-07  3.50D-11   115.8
                                                     3.94D-09  2.28D-11
 d= 0,ls=0.5,diis   278   -232.0680863468 -5.12D-12  1.65D-07  3.29D-11   116.3
                                                     6.56D-09  2.18D-11
 d= 0,ls=0.5,diis   279   -232.0680863468 -2.96D-12  1.59D-07  3.29D-11   116.7
                                                     6.84D-09  2.21D-11
 d= 0,ls=0.5,diis   280   -232.0680863468 -2.27D-12  1.57D-07  3.41D-11   117.1
                                                     5.59D-09  2.42D-11
 d= 0,ls=0.5,diis   281   -232.0680863468 -4.95D-12  1.75D-07  3.08D-11   117.5
                                                     5.65D-09  2.20D-11
 d= 0,ls=0.5,diis   282   -232.0680863469 -7.79D-12  1.83D-07  2.31D-11   117.9
                                                     6.29D-09  1.67D-11
 d= 0,ls=0.5,diis   283   -232.0680863469 -8.30D-12  1.71D-07  1.57D-11   118.3
                                                     4.60D-09  1.08D-11
 d= 0,ls=0.5,diis   284   -232.0680863469 -5.97D-12  1.46D-07  1.16D-11   118.8
                                                     9.75D-09  7.36D-12
 d= 0,ls=0.5,diis   285   -232.0680863469 -1.71D-13  1.31D-07  1.49D-11   119.2
                                                     1.08D-08  1.06D-11
 d= 0,ls=0.5,diis   286   -232.0680863469  1.36D-12  1.23D-07  1.95D-11   119.6
                                                     6.47D-09  1.49D-11
  Singularity in Pulay matrix. Error and Fock matrices removed. 
  Singularity in Pulay matrix. Error and Fock matrices removed. 
  Singularity in Pulay matrix. Error and Fock matrices removed. 
 d= 0,ls=0.5,diis   287   -232.0680863469 -2.27D-13  1.38D-07  2.12D-11   120.0
                                                     1.01D-08  1.66D-11
  Singularity in Pulay matrix. Error and Fock matrices removed. 
 d= 0,ls=0.5,diis   288   -232.0680863469 -8.19D-12  1.47D-07  1.22D-11   120.4
                                                     6.94D-09  8.29D-12
  Singularity in Pulay matrix. Error and Fock matrices removed. 
 d= 0,ls=0.5,diis   289   -232.0680863469 -5.12D-12  1.45D-07  7.64D-12   120.8
                                                     4.21D-09  4.40D-12
 d= 0,ls=0.5,diis   290   -232.0680863469 -4.21D-12  1.40D-07  5.05D-12   121.3
                                                     1.61D-09  2.37D-12
  Singularity in Pulay matrix. Error and Fock matrices removed. 
  Singularity in Pulay matrix. Error and Fock matrices removed. 
 d= 0,ls=0.5,diis   291   -232.0680863469 -2.90D-12  1.29D-07  3.97D-12   121.7
                                                     4.76D-09  1.69D-12
  Singularity in Pulay matrix. Error and Fock matrices removed. 
 d= 0,ls=0.5,diis   292   -232.0680863469 -9.66D-13  1.14D-07  4.21D-12   122.1
                                                     8.09D-09  2.03D-12
 d= 0,ls=0.5,diis   293   -232.0680863469 -6.25D-13  1.06D-07  5.67D-12   122.5
                                                     5.09D-09  3.35D-12
  Singularity in Pulay matrix. Error and Fock matrices removed. 
 d= 0,ls=0.5,diis   294   -232.0680863469 -3.98D-13  9.90D-08  6.17D-12   122.9
                                                     4.88D-09  3.84D-12


         Total DFT energy =     -232.068086346892
      One electron energy =     -665.460710680824
           Coulomb energy =      292.426424412700
          Exchange energy =      -31.760736114004
       Correlation energy =       -1.315703469797
 Nuclear repulsion energy =      174.051011164359

    Dispersion correction =       -0.008371659325

 Numeric. integr. density =       41.000002346599

     Total iterative time =    123.2s


 
                    DFT Final Alpha Molecular Orbital Analysis
                    ------------------------------------------
 
 Vector    1  Occ=1.000000D+00  E=-1.859714D+01
              MO Center= -6.6D-01,  3.3D-01,  7.1D-02, r^2= 1.5D-02
   Bfn.  Coefficient  Atom+Function         Bfn.  Coefficient  Atom+Function  
  ----- ------------  ---------------      ----- ------------  ---------------
    35      0.424652   4 O  s                36      0.366199   4 O  s         
    34      0.299527   4 O  s                37      0.055380   4 O  s         
 
 Vector    2  Occ=1.000000D+00  E=-9.765870D+00
              MO Center=  8.1D-02, -9.4D-01, -2.5D-02, r^2= 2.8D-02
   Bfn.  Coefficient  Atom+Function         Bfn.  Coefficient  Atom+Function  
  ----- ------------  ---------------      ----- ------------  ---------------
    56      0.424335   7 C  s                57      0.359453   7 C  s         
    55      0.308850   7 C  s                58      0.057380   7 C  s         
 
 Vector    3  Occ=1.000000D+00  E=-9.739851D+00
              MO Center=  9.5D-02,  1.5D+00,  1.7D-02, r^2= 2.8D-02
   Bfn.  Coefficient  Atom+Function         Bfn.  Coefficient  Atom+Function  
  ----- ------------  ---------------      ----- ------------  ---------------
     2      0.424085   1 C  s                 3      0.359628   1 C  s         
     1      0.308772   1 C  s                 4      0.057523   1 C  s         
 
 Vector    4  Occ=1.000000D+00  E=-9.710765D+00
              MO Center= -9.4D-01, -2.1D+00,  5.8D-02, r^2= 2.8D-02
   Bfn.  Coefficient  Atom+Function         Bfn.  Coefficient  Atom+Function  
  ----- ------------  ---------------      ----- ------------  ---------------
    71      0.424228   8 C  s                72      0.359384   8 C  s         
    70      0.308805   8 C  s                73      0.057889   8 C  s         
 
 Vector    5  Occ=1.000000D+00  E=-9.681688D+00
              MO Center=  1.4D+00,  1.6D+00, -1.1D-01, r^2= 2.8D-02
   Bfn.  Coefficient  Atom+Function         Bfn.  Coefficient  Atom+Function  
  ----- ------------  ---------------      ----- ------------  ---------------
    17      0.424079   2 C  s                18      0.359591   2 C  s         
    16      0.308782   2 C  s                19      0.057568   2 C  s         
 
 Vector    6  Occ=1.000000D+00  E=-7.776229D-01
              MO Center= -4.1D-01,  3.4D-01,  4.7D-02, r^2= 6.9D-01
   Bfn.  Coefficient  Atom+Function         Bfn.  Coefficient  Atom+Function  
  ----- ------------  ---------------      ----- ------------  ---------------
    38      0.495851   4 O  s                39      0.270204   4 O  s         
     5      0.162162   1 C  s                59      0.153092   7 C  s         
    36     -0.139860   4 O  s                35     -0.116167   4 O  s         
    37      0.114340   4 O  s                43      0.088185   4 O  px        
    40      0.083367   4 O  px                8     -0.073382   1 C  py        
 
 Vector    7  Occ=1.000000D+00  E=-5.309863D-01
              MO Center= -3.0D-01, -7.8D-01,  1.7D-02, r^2= 3.0D+00
   Bfn.  Coefficient  Atom+Function         Bfn.  Coefficient  Atom+Function  
  ----- ------------  ---------------      ----- ------------  ---------------
    59      0.332746   7 C  s                74      0.318139   8 C  s         
     5     -0.223290   1 C  s                20     -0.127706   2 C  s         
    41     -0.120202   4 O  py               44     -0.098247   4 O  py        
    60      0.093496   7 C  s                72     -0.090087   8 C  s         
    57     -0.089508   7 C  s                75      0.074602   8 C  s         
 
 Vector    8  Occ=1.000000D+00  E=-4.824814D-01
              MO Center=  5.8D-01,  9.0D-01, -4.0D-02, r^2= 3.5D+00
   Bfn.  Coefficient  Atom+Function         Bfn.  Coefficient  Atom+Function  
  ----- ------------  ---------------      ----- ------------  ---------------
    20      0.352410   2 C  s                 5      0.264744   1 C  s         
    74      0.201487   8 C  s                38     -0.164534   4 O  s         
    39     -0.124654   4 O  s                 7      0.114641   1 C  px        
    18     -0.109216   2 C  s                17     -0.085179   2 C  s         
    19      0.083473   2 C  s                75      0.083238   8 C  s         
 
 Vector    9  Occ=1.000000D+00  E=-4.033563D-01
              MO Center= -3.3D-01, -7.7D-01,  2.0D-02, r^2= 3.8D+00
   Bfn.  Coefficient  Atom+Function         Bfn.  Coefficient  Atom+Function  
  ----- ------------  ---------------      ----- ------------  ---------------
    74      0.322251   8 C  s                59     -0.281812   7 C  s         
    41      0.162487   4 O  py               20     -0.137965   2 C  s         
     5      0.134300   1 C  s                44      0.134395   4 O  py        
    60     -0.118806   7 C  s                 7     -0.106368   1 C  px        
    75      0.098735   8 C  s                10     -0.093118   1 C  px        
 
 Vector   10  Occ=1.000000D+00  E=-3.290090D-01
              MO Center=  3.0D-01,  2.0D-01, -2.4D-02, r^2= 3.9D+00
   Bfn.  Coefficient  Atom+Function         Bfn.  Coefficient  Atom+Function  
  ----- ------------  ---------------      ----- ------------  ---------------
     5      0.227542   1 C  s                20     -0.212660   2 C  s         
    59      0.210951   7 C  s                41      0.146400   4 O  py        
    61      0.138747   7 C  px               38     -0.136375   4 O  s         
    39     -0.134383   4 O  s                44      0.124508   4 O  py        
    64      0.112637   7 C  px                7     -0.094829   1 C  px        
 
 Vector   11  Occ=1.000000D+00  E=-2.708485D-01
              MO Center=  2.2D-01,  6.9D-01, -8.5D-03, r^2= 3.7D+00
   Bfn.  Coefficient  Atom+Function         Bfn.  Coefficient  Atom+Function  
  ----- ------------  ---------------      ----- ------------  ---------------
     8      0.219426   1 C  py               41     -0.180766   4 O  py        
    11      0.172719   1 C  py               44     -0.154717   4 O  py        
    61     -0.134449   7 C  px               23      0.130759   2 C  py        
    64     -0.125314   7 C  px               32      0.116041   3 H  s         
    77      0.104356   8 C  py               31      0.102791   3 H  s         
 
 Vector   12  Occ=1.000000D+00  E=-2.518479D-01
              MO Center= -2.3D-01, -1.1D+00,  1.4D-03, r^2= 2.2D+00
   Bfn.  Coefficient  Atom+Function         Bfn.  Coefficient  Atom+Function  
  ----- ------------  ---------------      ----- ------------  ---------------
    63      0.258815   7 C  pz               66      0.225438   7 C  pz        
    78      0.178433   8 C  pz               42      0.143240   4 O  pz        
    81      0.142356   8 C  pz               45      0.122063   4 O  pz        
    89     -0.107034  10 H  s                86      0.105814   9 H  s         
    88     -0.100595  10 H  s                85      0.099800   9 H  s         
 
 Vector   13  Occ=1.000000D+00  E=-2.376495D-01
              MO Center=  7.3D-01,  1.2D+00, -5.3D-02, r^2= 3.4D+00
   Bfn.  Coefficient  Atom+Function         Bfn.  Coefficient  Atom+Function  
  ----- ------------  ---------------      ----- ------------  ---------------
    22      0.237476   2 C  px                7     -0.205108   1 C  px        
    10     -0.168227   1 C  px               40     -0.137523   4 O  px        
    50      0.137296   5 H  s                25      0.136044   2 C  px        
     5     -0.130803   1 C  s                49      0.117193   5 H  s         
    20      0.115318   2 C  s                43     -0.113683   4 O  px        
 
 Vector   14  Occ=1.000000D+00  E=-1.838730D-01
              MO Center= -1.7D-01, -1.2D+00, -6.6D-03, r^2= 5.5D+00
   Bfn.  Coefficient  Atom+Function         Bfn.  Coefficient  Atom+Function  
  ----- ------------  ---------------      ----- ------------  ---------------
    77      0.225923   8 C  py               95     -0.194612  12 H  s         
    80      0.191719   8 C  py               96     -0.162180  12 H  s         
    76     -0.152985   8 C  px               94     -0.152165  12 H  s         
    23     -0.148275   2 C  py               79     -0.126076   8 C  px        
    39     -0.124316   4 O  s                26     -0.119324   2 C  py        
 
 Vector   15  Occ=1.000000D+00  E=-1.738785D-01
              MO Center= -2.3D-01, -8.1D-01,  5.5D-03, r^2= 4.1D+00
   Bfn.  Coefficient  Atom+Function         Bfn.  Coefficient  Atom+Function  
  ----- ------------  ---------------      ----- ------------  ---------------
    76      0.237559   8 C  px               62     -0.193847   7 C  py        
    79      0.193069   8 C  px               61     -0.187329   7 C  px        
    65     -0.158321   7 C  py               64     -0.148845   7 C  px        
    23     -0.119578   2 C  py               77      0.116377   8 C  py        
    50     -0.093161   5 H  s                98     -0.093521  13 H  s         
 
 Vector   16  Occ=1.000000D+00  E=-1.647687D-01
              MO Center= -8.2D-01, -1.1D+00,  6.9D-02, r^2= 3.2D+00
   Bfn.  Coefficient  Atom+Function         Bfn.  Coefficient  Atom+Function  
  ----- ------------  ---------------      ----- ------------  ---------------
    78      0.258020   8 C  pz               81      0.218675   8 C  pz        
    42     -0.199289   4 O  pz               45     -0.169509   4 O  pz        
    92      0.157410  11 H  s                98     -0.153089  13 H  s         
    84      0.124369   8 C  pz               91      0.124631  11 H  s         
    97     -0.120984  13 H  s                 9     -0.116085   1 C  pz        
 
 Vector   17  Occ=1.000000D+00  E=-1.488449D-01
              MO Center=  4.8D-01,  7.2D-01, -3.4D-02, r^2= 5.1D+00
   Bfn.  Coefficient  Atom+Function         Bfn.  Coefficient  Atom+Function  
  ----- ------------  ---------------      ----- ------------  ---------------
    23      0.196051   2 C  py               26      0.171055   2 C  py        
    41      0.165932   4 O  py                8     -0.159725   1 C  py        
    32     -0.158423   3 H  s                53     -0.159210   6 H  s         
    51      0.152129   5 H  s                44      0.150079   4 O  py        
    33     -0.144882   3 H  s                77      0.145601   8 C  py        
 
 Vector   18  Occ=1.000000D+00  E=-1.096125D-01
              MO Center= -1.1D-02,  1.1D-01,  1.1D-03, r^2= 3.1D+00
   Bfn.  Coefficient  Atom+Function         Bfn.  Coefficient  Atom+Function  
  ----- ------------  ---------------      ----- ------------  ---------------
    42      0.238889   4 O  pz                9      0.220198   1 C  pz        
    45      0.202687   4 O  pz               12      0.197583   1 C  pz        
    63     -0.190390   7 C  pz               86     -0.156505   9 H  s         
    89      0.155044  10 H  s                66     -0.144306   7 C  pz        
    48      0.140819   4 O  pz               24      0.119426   2 C  pz        
 
 Vector   19  Occ=1.000000D+00  E=-1.028182D-01
              MO Center= -4.2D-01,  2.6D-01,  4.5D-02, r^2= 2.3D+00
   Bfn.  Coefficient  Atom+Function         Bfn.  Coefficient  Atom+Function  
  ----- ------------  ---------------      ----- ------------  ---------------
    40      0.359473   4 O  px               43      0.297949   4 O  px        
    46      0.208590   4 O  px               39     -0.175361   4 O  s         
    21     -0.174326   2 C  s                61     -0.164076   7 C  px        
     7     -0.154334   1 C  px               38     -0.143351   4 O  s         
    22      0.135611   2 C  px               25      0.132276   2 C  px        
 
 Vector   20  Occ=1.000000D+00  E=-1.546340D-02
              MO Center=  5.3D-01,  1.1D+00, -3.3D-02, r^2= 2.5D+00
   Bfn.  Coefficient  Atom+Function         Bfn.  Coefficient  Atom+Function  
  ----- ------------  ---------------      ----- ------------  ---------------
    42     -0.302977   4 O  pz               24      0.280448   2 C  pz        
    27      0.260555   2 C  pz               45     -0.256757   4 O  pz        
    30      0.242220   2 C  pz               48     -0.225088   4 O  pz        
     9      0.166973   1 C  pz               12      0.151456   1 C  pz        
    87      0.141122   9 H  s                90     -0.140359  10 H  s         
 
 Vector   21  Occ=1.000000D+00  E= 1.683232D-01
              MO Center=  1.7D-01, -4.4D-01, -4.4D-02, r^2= 8.0D+00
   Bfn.  Coefficient  Atom+Function         Bfn.  Coefficient  Atom+Function  
  ----- ------------  ---------------      ----- ------------  ---------------
    75      1.685623   8 C  s                60      0.846632   7 C  s         
    96     -0.733900  12 H  s                93     -0.654100  11 H  s         
    90     -0.648438  10 H  s                30     -0.494861   2 C  pz        
    87     -0.486155   9 H  s                15      0.480433   1 C  pz        
    67      0.422010   7 C  px               99     -0.384554  13 H  s         
 
 Vector   22  Occ=0.000000D+00  E= 1.693209D-01
              MO Center=  2.3D-01, -1.2D-01,  1.5D-03, r^2= 7.6D+00
   Bfn.  Coefficient  Atom+Function         Bfn.  Coefficient  Atom+Function  
  ----- ------------  ---------------      ----- ------------  ---------------
    75      1.550573   8 C  s                60      0.716178   7 C  s         
    96     -0.686193  12 H  s                99     -0.566521  13 H  s         
    87     -0.549140   9 H  s                15     -0.535397   1 C  pz        
    30      0.516866   2 C  pz               90     -0.433818  10 H  s         
    93     -0.408863  11 H  s                67      0.376085   7 C  px        
 
 Vector   23  Occ=0.000000D+00  E= 1.940266D-01
              MO Center=  8.2D-01,  1.3D+00, -4.5D-02, r^2= 1.0D+01
   Bfn.  Coefficient  Atom+Function         Bfn.  Coefficient  Atom+Function  
  ----- ------------  ---------------      ----- ------------  ---------------
    21      1.910144   2 C  s                33     -1.393299   3 H  s         
    51     -1.344327   5 H  s                60      1.158882   7 C  s         
    75     -1.015919   8 C  s                54     -0.918845   6 H  s         
    14      0.723204   1 C  py                6      0.633895   1 C  s         
    13     -0.615676   1 C  px               93      0.587011  11 H  s         
 
 Vector   24  Occ=0.000000D+00  E= 2.012573D-01
              MO Center=  3.1D-01,  8.1D-01, -6.8D-03, r^2= 9.5D+00
   Bfn.  Coefficient  Atom+Function         Bfn.  Coefficient  Atom+Function  
  ----- ------------  ---------------      ----- ------------  ---------------
    33      1.578278   3 H  s                60      1.410715   7 C  s         
     6     -1.358280   1 C  s                75     -1.198251   8 C  s         
    54     -1.095259   6 H  s                51      1.047406   5 H  s         
    29     -0.758682   2 C  py               87     -0.653547   9 H  s         
    90     -0.648868  10 H  s                93      0.555768  11 H  s         
 
 Vector   25  Occ=0.000000D+00  E= 2.249572D-01
              MO Center= -2.9D-01, -9.7D-01,  1.1D-01, r^2= 9.6D+00
   Bfn.  Coefficient  Atom+Function         Bfn.  Coefficient  Atom+Function  
  ----- ------------  ---------------      ----- ------------  ---------------
    96      1.851784  12 H  s                33     -1.308265   3 H  s         
    51      1.279274   5 H  s                93     -1.102489  11 H  s         
    29     -1.074949   2 C  py               82     -0.841193   8 C  px        
     6      0.810912   1 C  s                14      0.775546   1 C  py        
    99     -0.769190  13 H  s                60      0.640856   7 C  s         
 
 Vector   26  Occ=0.000000D+00  E= 2.263493D-01
              MO Center= -4.0D-01, -1.4D+00, -4.2D-02, r^2= 6.8D+00
   Bfn.  Coefficient  Atom+Function         Bfn.  Coefficient  Atom+Function  
  ----- ------------  ---------------      ----- ------------  ---------------
    90     -1.659152  10 H  s                87      1.570040   9 H  s         
    99     -1.417867  13 H  s                93      1.388536  11 H  s         
    69     -1.081515   7 C  pz               84     -0.579737   8 C  pz        
    33     -0.284593   3 H  s                51      0.257911   5 H  s         
    81     -0.236680   8 C  pz                6      0.218351   1 C  s         
 
 Vector   27  Occ=0.000000D+00  E= 2.329397D-01
              MO Center=  4.4D-01,  6.7D-01, -3.1D-02, r^2= 1.2D+01
   Bfn.  Coefficient  Atom+Function         Bfn.  Coefficient  Atom+Function  
  ----- ------------  ---------------      ----- ------------  ---------------
    21      2.193979   2 C  s                60     -1.982697   7 C  s         
     6     -1.638411   1 C  s                51     -1.530098   5 H  s         
    75      1.282219   8 C  s                33      1.128119   3 H  s         
    87      0.839388   9 H  s                99     -0.718642  13 H  s         
    29      0.703662   2 C  py               14     -0.677249   1 C  py        
 
 Vector   28  Occ=0.000000D+00  E= 2.339479D-01
              MO Center= -6.3D-02, -1.2D+00, -5.2D-02, r^2= 7.5D+00
   Bfn.  Coefficient  Atom+Function         Bfn.  Coefficient  Atom+Function  
  ----- ------------  ---------------      ----- ------------  ---------------
    96      2.025393  12 H  s                33      1.270127   3 H  s         
    82     -1.224549   8 C  px               67      1.023588   7 C  px        
    83      0.993875   8 C  py               68     -0.965774   7 C  py        
    29      0.878360   2 C  py               90     -0.814262  10 H  s         
    99     -0.797838  13 H  s                14     -0.770417   1 C  py        
 
 Vector   29  Occ=0.000000D+00  E= 2.570000D-01
              MO Center= -4.6D-01, -1.6D+00, -1.1D-02, r^2= 6.4D+00
   Bfn.  Coefficient  Atom+Function         Bfn.  Coefficient  Atom+Function  
  ----- ------------  ---------------      ----- ------------  ---------------
    84      2.089225   8 C  pz               99      2.036913  13 H  s         
    93     -1.985514  11 H  s                69     -1.836189   7 C  pz        
    87      1.817779   9 H  s                90     -1.785186  10 H  s         
    48      0.286339   4 O  pz               67     -0.228794   7 C  px        
    82      0.205618   8 C  px               63     -0.185167   7 C  pz        
 
 Vector   30  Occ=0.000000D+00  E= 2.767894D-01
              MO Center=  1.0D+00,  2.0D-01, -8.4D-02, r^2= 9.3D+00
   Bfn.  Coefficient  Atom+Function         Bfn.  Coefficient  Atom+Function  
  ----- ------------  ---------------      ----- ------------  ---------------
[...]
    58      1.263476   7 C  s                 6     -1.236805   1 C  s         
 
 Vector   83  Occ=0.000000D+00  E= 2.762788D+00
              MO Center=  2.3D-01,  1.6D+00,  6.2D-03, r^2= 2.7D+00
   Bfn.  Coefficient  Atom+Function         Bfn.  Coefficient  Atom+Function  
  ----- ------------  ---------------      ----- ------------  ---------------
     6      4.404425   1 C  s                 5     -3.614763   1 C  s         
    21     -3.194674   2 C  s                 4      2.559438   1 C  s         
    20      2.367183   2 C  s                19     -1.663848   2 C  s         
    29     -1.462215   2 C  py               14      1.379850   1 C  py        
    28      1.092088   2 C  px               32     -0.955578   3 H  s         
 
 Vector   84  Occ=0.000000D+00  E= 2.797002D+00
              MO Center= -6.2D-01,  2.4D-01,  6.4D-02, r^2= 1.3D+00
   Bfn.  Coefficient  Atom+Function         Bfn.  Coefficient  Atom+Function  
  ----- ------------  ---------------      ----- ------------  ---------------
    45      1.798525   4 O  pz               69      1.361939   7 C  pz        
    48     -1.325735   4 O  pz               42     -1.178180   4 O  pz        
    84     -0.620017   8 C  pz               87     -0.579691   9 H  s         
    90      0.576687  10 H  s                66     -0.453013   7 C  pz        
    15      0.402913   1 C  pz               93      0.240927  11 H  s         
 
 Vector   85  Occ=0.000000D+00  E= 2.873105D+00
              MO Center=  7.7D-02, -3.5D-01, -1.6D-02, r^2= 2.6D+00
   Bfn.  Coefficient  Atom+Function         Bfn.  Coefficient  Atom+Function  
  ----- ------------  ---------------      ----- ------------  ---------------
    60      4.753383   7 C  s                59     -3.535748   7 C  s         
    58      2.480298   7 C  s                14      1.405385   1 C  py        
    29     -1.290814   2 C  py               43      1.133854   4 O  px        
    89     -1.065532  10 H  s                86     -1.058767   9 H  s         
     6      1.008534   1 C  s                54     -0.900577   6 H  s         
 
 Vector   86  Occ=0.000000D+00  E= 2.934620D+00
              MO Center= -8.9D-01, -1.7D+00,  6.1D-02, r^2= 2.8D+00
   Bfn.  Coefficient  Atom+Function         Bfn.  Coefficient  Atom+Function  
  ----- ------------  ---------------      ----- ------------  ---------------
    75      7.167807   8 C  s                74     -4.791592   8 C  s         
    73      3.220864   8 C  s                60     -2.449860   7 C  s         
    68      2.006812   7 C  py               67      1.558640   7 C  px        
    47      1.207743   4 O  py               83      1.169832   8 C  py        
    92     -1.165570  11 H  s                98     -1.163178  13 H  s         
 
 Vector   87  Occ=0.000000D+00  E= 2.944873D+00
              MO Center=  2.5D-01,  3.7D-01, -2.0D-02, r^2= 3.2D+00
   Bfn.  Coefficient  Atom+Function         Bfn.  Coefficient  Atom+Function  
  ----- ------------  ---------------      ----- ------------  ---------------
    21      4.514540   2 C  s                 6     -3.209250   1 C  s         
    20     -2.972005   2 C  s                60      2.541389   7 C  s         
    13     -2.438227   1 C  px               59     -2.160815   7 C  s         
    19      2.020523   2 C  s                14      1.676122   1 C  py        
    33     -1.617805   3 H  s                58      1.551147   7 C  s         
 
 Vector   88  Occ=0.000000D+00  E= 3.088212D+00
              MO Center= -6.4D-01, -9.3D-02,  6.2D-02, r^2= 2.2D+00
   Bfn.  Coefficient  Atom+Function         Bfn.  Coefficient  Atom+Function  
  ----- ------------  ---------------      ----- ------------  ---------------
    60      4.060333   7 C  s                75     -3.131254   8 C  s         
    47      2.283875   4 O  py               59     -2.051775   7 C  s         
    74      2.040943   8 C  s                44     -1.931528   4 O  py        
    73     -1.394162   8 C  s                13      1.271147   1 C  px        
    58      1.261370   7 C  s                21     -1.183569   2 C  s         
 
 Vector   89  Occ=0.000000D+00  E= 4.798579D+00
              MO Center= -6.2D-01,  3.4D-01,  6.7D-02, r^2= 8.9D-01
   Bfn.  Coefficient  Atom+Function         Bfn.  Coefficient  Atom+Function  
  ----- ------------  ---------------      ----- ------------  ---------------
    38      5.155841   4 O  s                39     -4.090617   4 O  s         
    37     -3.935962   4 O  s                60      1.848988   7 C  s         
     6      1.413058   1 C  s                14     -1.275882   1 C  py        
    29      1.245071   2 C  py               21     -1.183449   2 C  s         
    36      0.824220   4 O  s                46     -0.761899   4 O  px        
 
 Vector   90  Occ=0.000000D+00  E= 1.161850D+01
              MO Center=  6.9D-01,  1.5D+00, -4.2D-02, r^2= 8.2D-01
   Bfn.  Coefficient  Atom+Function         Bfn.  Coefficient  Atom+Function  
  ----- ------------  ---------------      ----- ------------  ---------------
     3      2.390098   1 C  s                 4     -2.382213   1 C  s         
    18      2.169584   2 C  s                19     -2.149493   2 C  s         
     5      1.914014   1 C  s                20      1.715256   2 C  s         
     2     -1.263686   1 C  s                17     -1.150023   2 C  s         
    21     -0.896406   2 C  s                 6     -0.782899   1 C  s         
 
 Vector   91  Occ=0.000000D+00  E= 1.181857D+01
              MO Center= -8.9D-02, -1.1D+00, -1.0D-02, r^2= 9.3D-01
   Bfn.  Coefficient  Atom+Function         Bfn.  Coefficient  Atom+Function  
  ----- ------------  ---------------      ----- ------------  ---------------
    58     -3.026686   7 C  s                57      2.923305   7 C  s         
    59      2.626862   7 C  s                60     -1.752465   7 C  s         
    56     -1.526888   7 C  s                73     -1.423494   8 C  s         
    72      1.411252   8 C  s                74      1.163985   8 C  s         
    71     -0.737860   8 C  s                75     -0.635427   8 C  s         
 
 Vector   92  Occ=0.000000D+00  E= 1.188551D+01
              MO Center= -7.4D-01, -1.8D+00,  4.3D-02, r^2= 8.4D-01
   Bfn.  Coefficient  Atom+Function         Bfn.  Coefficient  Atom+Function  
  ----- ------------  ---------------      ----- ------------  ---------------
    73     -3.128062   8 C  s                72      2.972500   8 C  s         
    74      2.863847   8 C  s                75     -2.550331   8 C  s         
    71     -1.552853   8 C  s                60      1.505633   7 C  s         
    58      1.483094   7 C  s                59     -1.444696   7 C  s         
    57     -1.370203   7 C  s                56      0.715246   7 C  s         
 
 Vector   93  Occ=0.000000D+00  E= 1.199770D+01
              MO Center=  8.0D-01,  1.5D+00, -5.5D-02, r^2= 1.0D+00
   Bfn.  Coefficient  Atom+Function         Bfn.  Coefficient  Atom+Function  
  ----- ------------  ---------------      ----- ------------  ---------------
    19     -2.494562   2 C  s                18      2.400633   2 C  s         
    20      2.303275   2 C  s                 4      2.267172   1 C  s         
     3     -2.166545   1 C  s                21     -2.159237   2 C  s         
     5     -2.127156   1 C  s                 6      1.911043   1 C  s         
    17     -1.253384   2 C  s                 2      1.128596   1 C  s         
 
 Vector   94  Occ=0.000000D+00  E= 2.211225D+01
              MO Center= -6.5D-01,  3.3D-01,  7.0D-02, r^2= 2.0D-01
   Bfn.  Coefficient  Atom+Function         Bfn.  Coefficient  Atom+Function  
  ----- ------------  ---------------      ----- ------------  ---------------
    36      3.324747   4 O  s                37     -3.232430   4 O  s         
    38      2.632536   4 O  s                35     -1.742377   4 O  s         
    39     -1.724660   4 O  s                60      0.701020   7 C  s         
     6      0.558101   1 C  s                14     -0.531717   1 C  py        
    29      0.509963   2 C  py               21     -0.471330   2 C  s         
 
 Vector   95  Occ=0.000000D+00  E= 6.256981D+01
              MO Center=  6.8D-01,  1.5D+00, -4.1D-02, r^2= 5.5D-01
   Bfn.  Coefficient  Atom+Function         Bfn.  Coefficient  Atom+Function  
  ----- ------------  ---------------      ----- ------------  ---------------
     2      2.179848   1 C  s                17      1.945593   2 C  s         
     3     -1.642519   1 C  s                18     -1.461325   2 C  s         
     1     -1.295466   1 C  s                16     -1.157993   2 C  s         
     4      1.062159   1 C  s                19      0.937680   2 C  s         
     5     -0.811773   1 C  s                20     -0.709029   2 C  s         
 
 Vector   96  Occ=0.000000D+00  E= 6.275914D+01
              MO Center= -9.3D-02, -1.1D+00, -1.0D-02, r^2= 5.8D-01
   Bfn.  Coefficient  Atom+Function         Bfn.  Coefficient  Atom+Function  
  ----- ------------  ---------------      ----- ------------  ---------------
    56      2.640106   7 C  s                57     -2.017011   7 C  s         
    55     -1.559559   7 C  s                58      1.357933   7 C  s         
    71      1.242997   8 C  s                59     -1.118780   7 C  s         
    72     -0.948083   8 C  s                60      0.748463   7 C  s         
    70     -0.735077   8 C  s                73      0.621883   8 C  s         
 
 Vector   97  Occ=0.000000D+00  E= 6.283819D+01
              MO Center= -7.4D-01, -1.8D+00,  4.3D-02, r^2= 5.7D-01
   Bfn.  Coefficient  Atom+Function         Bfn.  Coefficient  Atom+Function  
  ----- ------------  ---------------      ----- ------------  ---------------
    71      2.672806   8 C  s                72     -2.043114   8 C  s         
    70     -1.578270   8 C  s                73      1.397106   8 C  s         
    56     -1.214344   7 C  s                74     -1.212997   8 C  s         
    75      1.079401   8 C  s                57      0.929651   7 C  s         
    55      0.716292   7 C  s                58     -0.653771   7 C  s         
 
 Vector   98  Occ=0.000000D+00  E= 6.294101D+01
              MO Center=  8.2D-01,  1.5D+00, -5.6D-02, r^2= 7.2D-01
   Bfn.  Coefficient  Atom+Function         Bfn.  Coefficient  Atom+Function  
  ----- ------------  ---------------      ----- ------------  ---------------
    17      2.184869   2 C  s                 2     -1.930787   1 C  s         
    18     -1.673709   2 C  s                 3      1.483465   1 C  s         
    16     -1.287961   2 C  s                 1      1.136529   1 C  s         
    19      1.133408   2 C  s                 4     -1.013435   1 C  s         
    20     -0.991717   2 C  s                21      0.926271   2 C  s         
 
 Vector   99  Occ=0.000000D+00  E= 1.180552D+02
              MO Center= -6.6D-01,  3.3D-01,  7.1D-02, r^2= 4.5D-02
   Bfn.  Coefficient  Atom+Function         Bfn.  Coefficient  Atom+Function  
  ----- ------------  ---------------      ----- ------------  ---------------
    35      2.970491   4 O  s                36     -2.275650   4 O  s         
    34     -1.756283   4 O  s                37      1.442803   4 O  s         
    38     -1.110961   4 O  s                39      0.732497   4 O  s         
    60     -0.304877   7 C  s                 6     -0.243686   1 C  s         
    14      0.227748   1 C  py               29     -0.218781   2 C  py        
 

   alpha - beta orbital overlaps 
   ----------------------------- 


   alpha      1      2      3      4      5      6      7      8      9     10
    beta      1      2      3      4      5      6      7      8      9     10
 overlap   1.000  1.000  1.000  1.000  1.000  1.000  0.999  0.999  1.000  1.000


   alpha     11     12     13     14     15     16     17     18     19     20
    beta     11     12     13     14     15     16     17     18     19     20
 overlap   1.000  1.000  1.000  1.000  1.000  0.998  1.000  0.919  0.921  0.999


   alpha     21     22     23     24     25     26     27     28     29     30
    beta     22     21     23     24     25     26     27     28     29     30
 overlap   0.723  0.714  0.957  0.963  0.889  0.938  0.915  0.874  0.998  0.998


   alpha     31     32     33     34     35     36     37     38     39     40
    beta     31     32     33     34     35     36     37     38     39     40
 overlap   0.997  0.998  0.998  0.999  0.998  0.998  0.996  0.994  0.992  0.997


   alpha     41     42     43     44     45     46     47     48     49     50
    beta     42     41     43     44     45     46     47     48     49     50
 overlap   0.838  0.841  0.997  0.998  0.971  0.973  0.997  0.995  0.992  0.992


   alpha     51     52     53     54     55     56     57     58     59     60
    beta     51     52     53     54     55     56     57     58     59     60
 overlap   0.998  0.999  0.999  0.999  0.995  0.996  0.998  0.999  1.000  1.000


   alpha     61     62     63     64     65     66     67     68     69     70
    beta     61     62     64     63     65     66     67     68     69     70
 overlap   1.000  1.000  0.944  0.947  0.992  0.986  0.996  1.000  1.000  0.999


   alpha     71     72     73     74     75     76     77     78     79     80
    beta     71     72     73     74     75     76     77     78     79     80
 overlap   1.000  1.000  1.000  1.000  1.000  0.999  0.998  1.000  0.940  0.941


   alpha     81     82     83     84     85     86     87     88     89     90
    beta     81     82     83     84     85     86     87     88     89     90
 overlap   0.995  0.995  1.000  1.000  1.000  1.000  1.000  1.000  1.000  1.000


   alpha     91     92     93     94     95     96     97     98     99
    beta     91     92     93     94     95     96     97     98     99
 overlap   1.000  1.000  1.000  1.000  1.000  1.000  1.000  1.000  1.000

     --------------------------
     Expectation value of S2:  
     --------------------------
      <S2> =      0.7510 (Exact =     0.7500)
 

 center of mass
 --------------
 x =  -0.03293145 y =   0.08508695 z =   0.00471413

 moments of inertia (a.u.)
 ------------------
         563.073500290999        -213.395089639908          15.329249742422
        -213.395089639908         214.967255077048          11.943650903023
          15.329249742422          11.943650903023         752.449194199978
 
     Multipole analysis of the density
     ---------------------------------
 
     L   x y z        total         alpha         beta         nuclear
     -   - - -        -----         -----         ----         -------
     0   0 0 0     -1.000000    -21.000000    -20.000000     40.000000
 
     1   1 0 0     -0.095439     -0.202608      0.107169      0.000000
     1   0 1 0      0.416082      0.627907     -0.211825      0.000000
     1   0 0 1      0.027231      0.058980     -0.031749      0.000000
 
     2   2 0 0    -34.012009    -83.877719    -76.902645    126.768355
     2   1 1 0     -4.638803    -67.357094    -64.004826    126.723116
     2   1 0 1     -0.017896      4.653699      4.649378     -9.320973
     2   0 2 0    -40.505017   -194.726579   -178.176650    332.398211
     2   0 1 1     -0.018900      3.438973      3.614418     -7.072291
     2   0 0 2    -32.283141    -25.111629    -19.363505     12.191993
 

 Task  times  cpu:      119.2s     wall:      123.4s
 
 
                                NWChem Input Module
                                -------------------
 
 
 Summary of allocated global arrays
-----------------------------------
  No active global arrays



                         GA Statistics for process    0
                         ------------------------------

       create   destroy   get      put      acc     scatter   gather  read&inc
calls: 5673     5673     8.78e+05 3.28e+04 5.87e+05    0        0     6648     
number of processes/call 8.56e+00 7.15e+01 6.86e+00 0.00e+00 0.00e+00
bytes total:             1.39e+09 1.54e+08 7.15e+08 0.00e+00 0.00e+00 5.32e+04
bytes remote:            1.21e+09 9.91e+07 6.41e+08 0.00e+00 0.00e+00 0.00e+00
Max memory consumed for GA by this process: 493856 bytes
 
 
 
                                     CITATION
                                     --------
                Please cite the following reference when publishing
                           results obtained with NWChem:
 
          E. Apr, E. J. Bylaska, W. A. de Jong, N. Govind, K. Kowalski,
       T. P. Straatsma, M. Valiev, H. J. J. van Dam, Y. Alexeev, J. Anchell,
       V. Anisimov, F. W. Aquino, R. Atta-Fynn, J. Autschbach, N. P. Bauman,
     J. C. Becca, D. E. Bernholdt, K. Bhaskaran-Nair, S. Bogatko, P. Borowski,
        J. Boschen, J. Brabec, A. Bruner, E. Caut, Y. Chen, G. N. Chuev,
      C. J. Cramer, J. Daily, M. J. O. Deegan, T. H. Dunning Jr., M. Dupuis,
   K. G. Dyall, G. I. Fann, S. A. Fischer, A. Fonari, H. Frchtl, L. Gagliardi,
      J. Garza, N. Gawande, S. Ghosh, K. Glaesemann, A. W. Gtz, J. Hammond,
       V. Helms, E. D. Hermes, K. Hirao, S. Hirata, M. Jacquelin, L. Jensen,
   B. G. Johnson, H. Jnsson, R. A. Kendall, M. Klemm, R. Kobayashi, V. Konkov,
      S. Krishnamoorthy, M. Krishnan, Z. Lin, R. D. Lins, R. J. Littlefield,
      A. J. Logsdail, K. Lopata, W. Ma, A. V. Marenich, J. Martin del Campo,
   D. Mejia-Rodriguez, J. E. Moore, J. M. Mullin, T. Nakajima, D. R. Nascimento,
    J. A. Nichols, P. J. Nichols, J. Nieplocha, A. Otero-de-la-Roza, B. Palmer,
    A. Panyala, T. Pirojsirikul, B. Peng, R. Peverati, J. Pittner, L. Pollack,
   R. M. Richard, P. Sadayappan, G. C. Schatz, W. A. Shelton, D. W. Silverstein,
   D. M. A. Smith, T. A. Soares, D. Song, M. Swart, H. L. Taylor, G. S. Thomas,
            V. Tipparaju, D. G. Truhlar, K. Tsemekhman, T. Van Voorhis,
     . Vzquez-Mayagoitia, P. Verma, O. Villa, A. Vishnu, K. D. Vogiatzis,
        D. Wang, J. H. Weare, M. J. Williamson, T. L. Windus, K. Woliski,
        A. T. Wong, Q. Wu, C. Yang, Q. Yu, M. Zacharias, Z. Zhang, Y. Zhao,
                                and R. J. Harrison
                        "NWChem: Past, present, and future
                         J. Chem. Phys. 152, 184102 (2020)
                               doi:10.1063/5.0004997
 
                                      AUTHORS
                                      -------
     E. Apra, E. J. Bylaska, N. Govind, K. Kowalski, M. Valiev, W. A. de Jong,
      T. P. Straatsma, H. J. J. van Dam, D. Wang, T. L. Windus, N. P. Bauman,
       A. Panyala, J. Hammond, J. Autschbach, K. Bhaskaran-Nair, J. Brabec,
    K. Lopata, S. A. Fischer, S. Krishnamoorthy, M. Jacquelin, W. Ma, M. Klemm,
       O. Villa, Y. Chen, V. Anisimov, F. Aquino, S. Hirata, M. T. Hackler,
           Eric Hermes, L. Jensen, J. E. Moore, J. C. Becca, V. Konjkov,
            D. Mejia-Rodriguez, T. Risthaus, M. Malagoli, A. Marenich,
   A. Otero-de-la-Roza, J. Mullin, P. Nichols, R. Peverati, J. Pittner, Y. Zhao,
        P.-D. Fan, A. Fonari, M. J. Williamson, R. J. Harrison, J. R. Rehr,
      M. Dupuis, D. Silverstein, D. M. A. Smith, J. Nieplocha, V. Tipparaju,
      M. Krishnan, B. E. Van Kuiken, A. Vazquez-Mayagoitia, M. Swart, Q. Wu,
   T. Van Voorhis, A. A. Auer, M. Nooijen, L. D. Crosby, E. Brown, G. Cisneros,
     G. I. Fann, H. Fruchtl, J. Garza, K. Hirao, R. A. Kendall, J. A. Nichols,
       K. Tsemekhman, K. Wolinski, J. Anchell, D. E. Bernholdt, P. Borowski,
       T. Clark, D. Clerc, H. Dachsel, M. J. O. Deegan, K. Dyall, D. Elwood,
      E. Glendening, M. Gutowski, A. C. Hess, J. Jaffe, B. G. Johnson, J. Ju,
        R. Kobayashi, R. Kutteh, Z. Lin, R. Littlefield, X. Long, B. Meng,
      T. Nakajima, S. Niu, L. Pollack, M. Rosing, K. Glaesemann, G. Sandrone,
      M. Stave, H. Taylor, G. Thomas, J. H. van Lenthe, A. T. Wong, Z. Zhang.

 Total times  cpu:      119.2s     wall:      123.4s
